Executable      : siesta
Version         : 5.2.1
Architecture    : x86_64
Compiler version: GNU-13.3.0
Compiler flags  : -march=nocona -mtune=haswell -ftree-vectorize -fPIC -fstack-protector-strong -fno-plt -O2 -ffunction-sections -pipe -isystem <prefix>/include -I<prefix>/_build_env/include -fdebug-prefix-map=<prefix>/work=/usr/local/src/conda/siesta-5.2.1 -fdebug-prefix-map=<prefix>=/usr/local/src/conda-prefix -I<prefix>/lib -fallow-argument-mismatch -O3
Parallelisations: none
NetCDF support
NetCDF-4 support
Lua support
DFT-D3 support

Runtime information:
* Directory : /home/samba/homes/convidat/Intento1/input_example_1
* Running in serial mode.
>> Start of run:  26-MAR-2025  15:23:12

                           *********************** 
                           *  WELCOME TO SIESTA  * 
                           *********************** 

 NOTE: Siesta V5 introduces some new defaults for basis-set generation
 NOTE: which might lead to slightly different numerical results.
 NOTE: Please see the manual for full details and compatibility measures.


reinit: Reading from file xoc.fdf

reinit: -----------------------------------------------------------------------
reinit: System Name: H2 + O2 -> H2O2 reaction
reinit: -----------------------------------------------------------------------
reinit: System Label: xoc
reinit: -----------------------------------------------------------------------

initatom: Reading input for the pseudopotentials and atomic orbitals ----------
Species number:   1 Atomic number:    8 Label: O
Species number:   2 Atomic number:    1 Label: H

Ground state valence configuration (from tables):   2s02  2p04  3d00  4f00
Ground state valence configuration (from tables):   1s01  2p00  3d00  4f00

---- Processing specs for species: O
Reading pseudopotential information in formatted form from:
  O.psf

---- Processing specs for species: H
Reading pseudopotential information in unformatted form from:
  H.vps

---- Pseudopotential check for O 

Pseudopotential generated from a fully relativistic atomic calculation
There are spin-orbit semi-local pseudopotentials available

Pseudized shells:
2s( 2.00) rc: 1.14
2p( 4.00) rc: 1.14
3d( 0.00) rc: 1.14
4f( 0.00) rc: 1.14
Valence configuration for ps generation: (assumed as above)

---- Pseudopotential check for H 

Pseudized shells:
1s( 1.00) rc: 1.25
2p( 0.00) rc: 1.25
3d( 0.00) rc: 1.25
4f( 0.00) rc: 1.25
Valence configuration for ps generation: (assumed as above)
For O, standard SIESTA heuristics set lmxkb to 3
 (one more than the basis l, including polarization orbitals).
Use PS.lmax or PS.KBprojectors blocks to override.
For H, standard SIESTA heuristics set lmxkb to 2
 (one more than the basis l, including polarization orbitals).
Use PS.lmax or PS.KBprojectors blocks to override.

<basis_specs>
===============================================================================
O                    Z=   8    Mass=  15.999        Charge= 0.17977+309
Lmxo=2 Lmxkb= 3    BasisType=split      Semic=F
L=0  Nsemic=0  Cnfigmx=2
          i=1  nzeta=1  polorb=0  (2s)
            splnorm:   0.15000    
               vcte:    40.000    
               rinn:  -0.90000    
               qcoe:    0.0000    
               qyuk:    0.0000    
               qwid:   0.10000E-01
                rcs:    0.0000    
            lambdas:    1.0000    
L=1  Nsemic=0  Cnfigmx=2
          i=1  nzeta=1  polorb=1  (2p)  (to be polarized perturbatively)
            splnorm:   0.15000    
               vcte:    40.000    
               rinn:  -0.90000    
               qcoe:    0.0000    
               qyuk:    0.0000    
               qwid:   0.10000E-01
                rcs:    0.0000    
            lambdas:    1.0000    
L=2  Nsemic=0  Cnfigmx=3
          i=1  nzeta=0  polorb=0  (3d)  (perturbative polarization orbital) (from 2p)
-------------------------------------------------------------------------------
L=0  Nkbl=1  erefs: 0.17977+309
L=1  Nkbl=1  erefs: 0.17977+309
L=2  Nkbl=1  erefs: 0.17977+309
L=3  Nkbl=1  erefs: 0.17977+309
===============================================================================
</basis_specs>

Using PAO.SplitTailNorm
atom: Called for O                     (Z =   8)
Maximum radius (at nrval) set to   50.00000 8518

read_vps: Pseudopotential generation method:
read_vps: ATM3      Troullier-Martins                       
Valence charge in pseudo generation:    6.00000

read_vps: Pseudopotential includes a core correction:
read_vps: Pseudo-core for xc-correction

xc_check: Exchange-correlation functional:
xc_check: GGA Perdew, Burke & Ernzerhof 1996
V l=0 = -2*Zval/r beyond r=  1.1355
V l=1 = -2*Zval/r beyond r=  1.1355
V l=2 = -2*Zval/r beyond r=  1.1309
V l=3 = -2*Zval/r beyond r=  1.1286
All V_l potentials equal beyond r=  1.1355
This should be close to max(r_c) in ps generation
All pots = -2*Zval/r beyond r=  1.1355
Using small-core scheme (local charge) for Vlocal

VLOCAL_FROM_CHLOCAL: 99.0% of the norm of Vloc inside     33.667 Ry
VLOCAL_FROM_CHLOCAL: 99.9% of the norm of Vloc inside     76.727 Ry
atom: Maximum radius for chlocal:    1.37241
atom: Maximum radius for r*vlocal+2*Zval:    1.25469

KBgen: Kleinman-Bylander projectors: 
GHOST: No ghost state for L =  0
   l= 0   rc=  1.357289   el= -1.759790   Ekb=  9.151830   kbcos=  0.327271
GHOST: No ghost state for L =  1
   l= 1   rc=  1.345038   el= -0.663797   Ekb= -7.991133   kbcos= -0.393963
GHOST: No ghost state for L =  2
   l= 2   rc=  1.779310   el=  0.012956   Ekb= -1.983219   kbcos= -0.003702
GHOST: No ghost state for L =  3
   l= 3   rc=  2.085579   el=  0.019231   Ekb= -0.873623   kbcos= -0.000360

KBgen: Total number of Kleinman-Bylander projectors:  16
atom: -------------------------------------------------------------------------

atom: SANKEY-TYPE ORBITALS:

SPLIT: Orbitals with angular momentum L= 0

SPLIT: Basis orbitals for state 2s

SPLIT: PAO cut-off radius determined from an
SPLIT: energy shift=  0.010000 Ry
Split based on tail norm

   izeta = 1
                 lambda =    1.000000
                     rc =    3.532490
                 energy =   -1.748682
                kinetic =    1.612754
    potential(screened) =   -3.361436
       potential(ionic) =  -11.306460

SPLIT: Orbitals with angular momentum L= 1

SPLIT: Basis orbitals for state 2p

SPLIT: PAO cut-off radius determined from an
SPLIT: energy shift=  0.010000 Ry
Split based on tail norm

   izeta = 1
                 lambda =    1.000000
                     rc =    4.299534
                 energy =   -0.652755
                kinetic =    4.913628
    potential(screened) =   -5.566382
       potential(ionic) =  -13.292903

POLgen: Perturbative polarization orbital with L=  2

POLgen: Polarization orbital for state 2p
Split based on tail norm

   izeta = 1
                     rc =    4.299534
                 energy =    2.258078
                kinetic =    4.298689
    potential(screened) =   -2.040611
       potential(ionic) =   -8.188336
atom: Total number of Sankey-type orbitals:  9

atm_pop: Valence configuration (for local Pseudopot. screening):
 2s( 2.00)                                                            
 2p( 4.00)                                                            
 3d( 0.00)                                                            
Vna: chval, zval:    6.00000   6.00000

Vna:  Cut-off radius for the neutral-atom potential:   4.299534
comcore: Pseudo-core radius Rcore=  1.364142

atom: _________________________________________________________________________

<basis_specs>
===============================================================================
H                    Z=   1    Mass=  1.0080        Charge= 0.17977+309
Lmxo=1 Lmxkb= 2    BasisType=split      Semic=F
L=0  Nsemic=0  Cnfigmx=1
          i=1  nzeta=1  polorb=1  (1s)  (to be polarized perturbatively)
            splnorm:   0.15000    
               vcte:    40.000    
               rinn:  -0.90000    
               qcoe:    0.0000    
               qyuk:    0.0000    
               qwid:   0.10000E-01
                rcs:    0.0000    
            lambdas:    1.0000    
L=1  Nsemic=0  Cnfigmx=2
          i=1  nzeta=0  polorb=0  (2p)  (perturbative polarization orbital) (from 1s)
-------------------------------------------------------------------------------
L=0  Nkbl=1  erefs: 0.17977+309
L=1  Nkbl=1  erefs: 0.17977+309
L=2  Nkbl=1  erefs: 0.17977+309
===============================================================================
</basis_specs>

Using PAO.SplitTailNorm
atom: Called for H                     (Z =   1)
Maximum radius (at nrval) set to   50.00000 8518

read_vps: Pseudopotential generation method:
read_vps: ATM3      Troullier-Martins                       
Valence charge in pseudo generation:    1.00000

xc_check: Exchange-correlation functional:
xc_check: GGA Perdew, Burke & Ernzerhof 1996
V l=0 = -2*Zval/r beyond r=  1.2384
V l=1 = -2*Zval/r beyond r=  1.2321
V l=2 = -2*Zval/r beyond r=  1.2235
All V_l potentials equal beyond r=  1.2371
This should be close to max(r_c) in ps generation
All pots = -2*Zval/r beyond r=  1.2384
Using small-core scheme (local charge) for Vlocal

VLOCAL_FROM_CHLOCAL: 99.0% of the norm of Vloc inside     28.363 Ry
VLOCAL_FROM_CHLOCAL: 99.9% of the norm of Vloc inside     64.639 Ry
atom: Maximum radius for chlocal:    1.44620
atom: Maximum radius for r*vlocal+2*Zval:    1.31026

KBgen: Kleinman-Bylander projectors: 
GHOST: No ghost state for L =  0
   l= 0   rc=  1.362769   el= -0.477200   Ekb= -2.026093   kbcos= -0.345051
GHOST: No ghost state for L =  1
   l= 1   rc=  1.431710   el=  0.007219   Ekb= -0.445752   kbcos= -0.023729
GHOST: No ghost state for L =  2
   l= 2   rc=  1.471166   el=  0.012944   Ekb= -0.141918   kbcos= -0.003041

KBgen: Total number of Kleinman-Bylander projectors:   9
atom: -------------------------------------------------------------------------

atom: SANKEY-TYPE ORBITALS:

SPLIT: Orbitals with angular momentum L= 0

SPLIT: Basis orbitals for state 1s

SPLIT: PAO cut-off radius determined from an
SPLIT: energy shift=  0.010000 Ry
Split based on tail norm

   izeta = 1
                 lambda =    1.000000
                     rc =    5.232664
                 energy =   -0.466073
                kinetic =    0.944036
    potential(screened) =   -1.410108
       potential(ionic) =   -1.935607

POLgen: Perturbative polarization orbital with L=  1

POLgen: Polarization orbital for state 1s
Split based on tail norm

   izeta = 1
                     rc =    5.232664
                 energy =    0.681103
                kinetic =    1.331928
    potential(screened) =   -0.650824
       potential(ionic) =   -1.138826
atom: Total number of Sankey-type orbitals:  4

atm_pop: Valence configuration (for local Pseudopot. screening):
 1s( 1.00)                                                            
 2p( 0.00)                                                            
Vna: chval, zval:    1.00000   1.00000

Vna:  Cut-off radius for the neutral-atom potential:   5.232664

atom: _________________________________________________________________________

prinput: Basis input 

PAO.BasisType split     

%block ChemicalSpeciesLabel
    1    8 O                       # Species index, atomic number, species label
    2    1 H                       # Species index, atomic number, species label
%endblock ChemicalSpeciesLabel

%block PAO.Basis                 # Define Basis set
# WARNING: This information might be incomplete!
O                     2                    # Species label, number of l-shells
 n=2   0   1                         # n, l, Nzeta 
   3.532   
   1.000   
 n=2   1   1 P   1                   # n, l, Nzeta, Polarization, NzetaPol
   4.300   
   1.000   
H                     1                    # Species label, number of l-shells
 n=1   0   1 P   1                   # n, l, Nzeta, Polarization, NzetaPol
   5.233   
   1.000   
%endblock PAO.Basis

prinput: ----------------------------------------------------------------------

Dumping basis to NetCDF file O.ion.nc
Dumping basis to NetCDF file H.ion.nc
coor:   Atomic-coordinates input format  =     Cartesian coordinates
coor:                                          (in Angstroms)

ioxv: Reading coordinates and velocities from file
! Info in XV file prevails over previous structure input
WARNING: xoc.VERLET_RESTART not found--reading only XV file and moving back 1 time step using Euler

siesta: Atomic coordinates (Bohr) and species
siesta:      2.54735  -0.00100  -0.00070  1        1
siesta:      5.01155  -0.00100  -0.00070  1        2
siesta:     12.84289   0.00299  -0.01463  2        3
siesta:     14.21278   0.02982   0.03724  2        4

siesta: System type = chain     

initatomlists: Number of atoms, orbitals, and projectors:      4    26    50

coxmol: Writing XMOL coordinates into file xoc.xyz                                                                                                                                                                                                                             

siesta: ******************** Simulation parameters ****************************
siesta:
siesta: The following are some of the parameters of the simulation.
siesta: A complete list of the parameters used, including default values,
siesta: can be found in file out.fdf
siesta:
redata: Spin configuration                          = none
redata: Number of spin components                   = 1
redata: Time-Reversal Symmetry                      = T
redata: Spin spiral                                 = F
redata: Long output                                 =   F
redata: Number of Atomic Species                    =        2
redata: Charge density info will appear in .RHO file
redata: Write Mulliken charges (when)               = none
redata: Write Mulliken Pop.                         = NO
redata: Write Hirshfeld charges (when)              = none
redata: Write Voronoi charges (when)                = none
redata: Write spin charge (when)                    = none
redata: Matel table size (NRTAB)                    =     1024
redata: Mesh Cutoff                                 =   200.0000 Ry
redata: Net charge of the system                    =     0.0000 |e|
redata: Min. number of SCF Iter                     =        0
redata: Max. number of SCF Iter                     =      250
redata: SCF convergence failure will abort job
redata: SCF mix quantity                            = Hamiltonian
redata: Mix DM or H after convergence               =   F
redata: Recompute H after scf cycle                 =   F
redata: Mix DM in first SCF step                    =   T
redata: Write Pulay info on disk                    =   F
redata: New DM Occupancy tolerance                  = 0.000000000001
redata: No kicks to SCF
redata: DM Mixing Weight for Kicks                  =     0.5000
redata: Require Harris convergence for SCF          =   F
redata: Harris energy tolerance for SCF             =     0.000100 eV
redata: Require DM convergence for SCF              =   T
redata: DM tolerance for SCF                        =     0.000300
redata: Require EDM convergence for SCF             =   F
redata: EDM tolerance for SCF                       =     0.001000 eV
redata: Require H convergence for SCF               =   T
redata: Hamiltonian tolerance for SCF               =     0.001000 eV
redata: Require (free) Energy convergence for SCF   =   F
redata: (free) Energy tolerance for SCF             =     0.000100 eV
redata: Using DFT-D3 dispersion                     =   F
redata: Using Saved Data (generic)                  =   F
redata: Use continuation files for DM               =   T
redata: Neglect nonoverlap interactions             =   F
redata: Method of Calculation                       = Diagonalization
redata: Electronic Temperature                      =   290.1130 K
redata: Fix the spin of the system                  =   F
redata: Max. number of TDED Iter                    =        1
redata: Number of TDED substeps                     =        3
redata: Dynamics option                             = Verlet MD run
redata: Initial MD time step                        =        1
redata:   Final MD time step                        =      200
redata: Length of MD time step                      =     1.0000 fs
redata: Initial Temperature of MD run               =     0.0000 K
redata: Perform a MD quench                         =   F
mix.SCF: Pulay mixing                            = Pulay
mix.SCF:    Variant                              = stable
mix.SCF:    History steps                        = 6
mix.SCF:    Linear mixing weight                 =     0.020000
mix.SCF:    Mixing weight                        =     0.020000
mix.SCF:    SVD condition                        = 0.1000E-07
redata: Save all siesta data in one NC              =   F
redata: ***********************************************************************

%block SCF.Mixers
  Pulay
%endblock SCF.Mixers

%block SCF.Mixer.Pulay
  # Mixing method
  method pulay
  variant stable

  # Mixing options
  weight 0.0200
  weight.linear 0.0200
  history 6
%endblock SCF.Mixer.Pulay

Size of DM history Fstack: 1
Total number of electrons:    14.000000
Total ionic charge:    14.000000
 Kpoints in:            1 . Kpoints trimmed:            1

siesta: k-grid: Number of k-points = 1
siesta: k-points from Monkhorst-Pack grid
siesta: k-cutoff (effective) =     5.000 Ang
siesta: k-point supercell and displacements
siesta: k-grid:     1     0     0      0.000
siesta: k-grid:     0     1     0      0.000
siesta: k-grid:     0     0     1      0.000

diag: Algorithm                                     = D&C
diag: Used triangular part                          = Lower
diag: Absolute tolerance                            =  0.100E-15
diag: Orthogonalization factor                      =  0.100E-05
diag: Memory factor                                 =  1.0000


ts: **************************************************************
ts: Save H and S matrices                           =    F
ts: Save DM and EDM matrices                        =    F
ts: Only save the overlap matrix S                  =    F
ts: **************************************************************

************************ Begin: TS CHECKS AND WARNINGS ************************
************************ End: TS CHECKS AND WARNINGS **************************


                     ====================================
                        Begin MD step =      1
                     ====================================

outcell: Unit cell vectors (Ang):
       10.000004    0.000000    0.000000
        0.000000   10.000004    0.000000
        0.000000    0.000000   10.000004

outcell: Cell vector modules (Ang)   :   10.000004   10.000004   10.000004
outcell: Cell angles (23,13,12) (deg):     90.0000     90.0000     90.0000
outcell: Cell volume (Ang**3)        :   1000.0012
Gamma-point calculation with multiply-connected orbital pairs
Gamma-point calculation with multiply-connected orbital pairs
Folding of H and S implicitly performed
Folding of H and S implicitly performed
<dSpData1D:S at geom step 1
  <sparsity:sparsity for geom step 1
    nrows_g=26 nrows=26 sparsity=1.0000 nnzs=676, refcount: 7>
  <dData1D:(new from dSpData1D) n=676, refcount: 1>
refcount: 1>
new_DM -- step:     1
Initializing Density Matrix...

Attempting to read DM from file... Failed...
DM filled with atomic data:
<dSpData2D:DM initialized from atoms
  <sparsity:sparsity for geom step 1
    nrows_g=26 nrows=26 sparsity=1.0000 nnzs=676, refcount: 8>
  <dData2D:DM n=676 m=1, refcount: 1>
refcount: 1>
No. of atoms with KB's overlaping orbs in proc 0. Max # of overlaps:       4      22

InitMesh: MESH = 90 x 90 x 90 = 729000
InitMesh: Mesh cutoff (required, used) =   200.000   223.865 Ry
New grid distribution [1]: sub = 2

stepf: Fermi-Dirac step function

siesta: Program's energy decomposition (eV):
siesta: Ebs     =      -210.135822
siesta: Eions   =      1581.702395
siesta: Ena     =       338.511189
siesta: Ekin    =       624.676490
siesta: Enl     =       -90.872605
siesta: Eso     =         0.000000
siesta: Edftu   =         0.000000
siesta: DEna    =        14.306779
siesta: DUscf   =         1.601126
siesta: DUext   =         0.000000
siesta: Ex      =      -190.529173
siesta: Ec      =       -13.816979
siesta: Exc     =      -204.346152
siesta: EbV     =         0.000000
siesta: eta*DQ  =         0.000000
siesta: Emadel  =         0.000000
siesta: Emeta   =         0.000000
siesta: Emolmec =         0.000000
siesta: Ekinion =         0.000000
siesta: Eharris =      -900.241996
siesta: Etot    =      -897.825568
siesta: FreeEng =      -897.894883

        iscf     Eharris(eV)        E_KS(eV)     FreeEng(eV)     dDmax    Ef(eV) dHmax(eV)
   scf:    1     -900.241996     -897.825568     -897.894883  0.774881 -4.685379  2.423323
timer: Routine,Calls,Time,% = IterSCF        1       0.577  25.45
   scf:    2     -897.863526     -897.844605     -897.913920  0.001844 -4.717978  2.357380
   scf:    3     -898.286358     -898.129623     -898.198938  0.064652 -5.797162  0.205373
   scf:    4     -898.129903     -898.131103     -898.200418  0.008973 -5.713138  0.379027
   scf:    5     -898.134560     -898.133178     -898.202493  0.007596 -5.915827  0.034634
   scf:    6     -898.133217     -898.133236     -898.202550  0.001319 -5.904794  0.015423
mix: Pulay -- inversion failed, > SVD [rank/size] 4 / 5
   scf:    7     -898.133247     -898.133241     -898.202556  0.000081 -5.905952  0.013018
   scf:    8     -898.133264     -898.133255     -898.202570  0.000473 -5.907941  0.002401
   scf:    9     -898.133256     -898.133256     -898.202570  0.000425 -5.908516  0.000198
   scf:   10     -898.133256     -898.133256     -898.202570  0.000006 -5.908457  0.000148

SCF Convergence by DM+H criterion
max |DM_out - DM_in|         :     0.0000062490
max |H_out - H_in|      (eV) :     0.0001477719
SCF cycle converged after 10 iterations

Using DM_out to compute the final energy and forces
No. of atoms with KB's overlaping orbs in proc 0. Max # of overlaps:       4      22

siesta: E_KS(eV) =             -898.1333

siesta: E_KS - E_eggbox =      -898.1333

siesta: Atomic forces (eV/Ang):
----------------------------------------
   Tot   -0.002929    0.000910    0.000104
----------------------------------------
   Max    5.120202
   Res    2.091252    sqrt( Sum f_i^2 / 3N )
----------------------------------------
   Max    5.120202    constrained

Stress tensor Voigt[x,y,z,yz,xz,xy] (kbar):      -14.41       -0.35       -0.07        0.01       -0.26        0.07
(Free)E + p*V (eV/cell)     -895.1165
Target enthalpy (eV/cell)     -898.2026

siesta: Stress tensor (static) (eV/Ang**3):
        -0.003659   -0.000073   -0.000141
        -0.000073    0.000005   -0.000003
        -0.000141   -0.000003    0.000001

siesta: Pressure (static):          1.95146333  kBar

siesta: Stress tensor (total) (eV/Ang**3):
        -0.008996    0.000046   -0.000164
         0.000046   -0.000218    0.000008
        -0.000164    0.000008   -0.000044

siesta: Pressure (total):          4.94448932  kBar

siesta: Temp_ion =    7226.142 K

                     ====================================
                        Begin MD step =      2
                     ====================================

outcell: Unit cell vectors (Ang):
       10.000004    0.000000    0.000000
        0.000000   10.000004    0.000000
        0.000000    0.000000   10.000004

outcell: Cell vector modules (Ang)   :   10.000004   10.000004   10.000004
outcell: Cell angles (23,13,12) (deg):     90.0000     90.0000     90.0000
outcell: Cell volume (Ang**3)        :   1000.0012
<dSpData1D:S at geom step 2
  <sparsity:sparsity for geom step 2
    nrows_g=26 nrows=26 sparsity=.9763 nnzs=660, refcount: 7>
  <dData1D:(new from dSpData1D) n=660, refcount: 1>
refcount: 1>
new_DM -- step:     2
Re-using DM from previous geometries...
Number of DMs in history: 1
 DM extrapolation coefficients: 
1   1.00000
New DM after history re-use:
<dSpData2D:SpM extrapolated using coords
  <sparsity:sparsity for geom step 2
    nrows_g=26 nrows=26 sparsity=.9763 nnzs=660, refcount: 9>
  <dData2D:(temp array for extrapolation) n=660 m=1, refcount: 1>
refcount: 1>
Note: For starting DM, Qtot, Tr[D*S] =         14.00000000         13.97977553
No. of atoms with KB's overlaping orbs in proc 0. Max # of overlaps:       4      18

InitMesh: MESH = 90 x 90 x 90 = 729000
InitMesh: Mesh cutoff (required, used) =   200.000   223.865 Ry
New grid distribution [1]: sub = 2

        iscf     Eharris(eV)        E_KS(eV)     FreeEng(eV)     dDmax    Ef(eV) dHmax(eV)
   scf:    1     -898.108976     -898.327621     -898.396936  0.012564 -5.649936  0.270642
   scf:    2     -898.326600     -898.327896     -898.397201  0.011094 -5.891770  0.118382
   scf:    3     -898.328986     -898.328496     -898.397808  0.004157 -5.837308  0.062877
   scf:    4     -898.328431     -898.328615     -898.397925  0.011681 -5.847768  0.024687
   scf:    5     -898.328584     -898.328678     -898.397991  0.009482 -5.851166  0.019697
   scf:    6     -898.328731     -898.328706     -898.398020  0.000917 -5.868970  0.012640
   scf:    7     -898.328734     -898.328728     -898.398043  0.002772 -5.864708  0.000906
   scf:    8     -898.328728     -898.328728     -898.398043  0.000187 -5.865111  0.000232

SCF Convergence by DM+H criterion
max |DM_out - DM_in|         :     0.0001874976
max |H_out - H_in|      (eV) :     0.0002322719
SCF cycle converged after 8 iterations

Using DM_out to compute the final energy and forces
No. of atoms with KB's overlaping orbs in proc 0. Max # of overlaps:       4      18

siesta: E_KS(eV) =             -898.3287

siesta: Atomic forces (eV/Ang):
----------------------------------------
   Tot    0.000686    0.000169    0.000172
----------------------------------------
   Max    2.726641
   Res    1.137664    sqrt( Sum f_i^2 / 3N )
----------------------------------------
   Max    2.726641    constrained

Stress tensor Voigt[x,y,z,yz,xz,xy] (kbar):      -12.96       -0.36       -0.08        0.01       -0.28        0.02
(Free)E + p*V (eV/cell)     -895.6120
Target enthalpy (eV/cell)     -898.3980

siesta: Stress tensor (static) (eV/Ang**3):
        -0.002750   -0.000107   -0.000151
        -0.000107    0.000001   -0.000007
        -0.000151   -0.000007   -0.000005

siesta: Pressure (static):          1.47068478  kBar

siesta: Stress tensor (total) (eV/Ang**3):
        -0.008086    0.000012   -0.000174
         0.000012   -0.000222    0.000003
        -0.000174    0.000003   -0.000050

siesta: Pressure (total):          4.46371077  kBar

siesta: Temp_ion =    7619.527 K

                     ====================================
                        Begin MD step =      3
                     ====================================

outcell: Unit cell vectors (Ang):
       10.000004    0.000000    0.000000
        0.000000   10.000004    0.000000
        0.000000    0.000000   10.000004

outcell: Cell vector modules (Ang)   :   10.000004   10.000004   10.000004
outcell: Cell angles (23,13,12) (deg):     90.0000     90.0000     90.0000
outcell: Cell volume (Ang**3)        :   1000.0012
Gamma-point calculation with multiply-connected orbital pairs
Gamma-point calculation with multiply-connected orbital pairs
Folding of H and S implicitly performed
Folding of H and S implicitly performed
<dSpData1D:S at geom step 3
  <sparsity:sparsity for geom step 3
    nrows_g=26 nrows=26 sparsity=1.0000 nnzs=676, refcount: 7>
  <dData1D:(new from dSpData1D) n=676, refcount: 1>
refcount: 1>
new_DM -- step:     3
Re-using DM from previous geometries...
Number of DMs in history: 1
 DM extrapolation coefficients: 
1   1.00000
New DM after history re-use:
<dSpData2D:SpM extrapolated using coords
  <sparsity:sparsity for geom step 3
    nrows_g=26 nrows=26 sparsity=1.0000 nnzs=676, refcount: 9>
  <dData2D:(temp array for extrapolation) n=676 m=1, refcount: 1>
refcount: 1>
Note: For starting DM, Qtot, Tr[D*S] =         14.00000000         13.95062365
No. of atoms with KB's overlaping orbs in proc 0. Max # of overlaps:       4      22

InitMesh: MESH = 90 x 90 x 90 = 729000
InitMesh: Mesh cutoff (required, used) =   200.000   223.865 Ry
New grid distribution [1]: sub = 2

        iscf     Eharris(eV)        E_KS(eV)     FreeEng(eV)     dDmax    Ef(eV) dHmax(eV)
   scf:    1     -898.089161     -898.421245     -898.490558  0.023396 -5.336922  0.593059
   scf:    2     -898.413850     -898.420479     -898.489678  0.029444 -5.873955  0.220334
   scf:    3     -898.424695     -898.422796     -898.492070  0.010929 -5.777345  0.129990
   scf:    4     -898.421472     -898.423429     -898.492693  0.033917 -5.798218  0.050927
   scf:    5     -898.423836     -898.424071     -898.493384  0.021211 -5.804066  0.039605
   scf:    6     -898.424184     -898.424133     -898.493447  0.001106 -5.835129  0.029699
   scf:    7     -898.424267     -898.424220     -898.493535  0.002381 -5.827681  0.001862
   scf:    8     -898.424219     -898.424220     -898.493534  0.000496 -5.828085  0.001432
   scf:    9     -898.424219     -898.424219     -898.493534  0.000108 -5.828793  0.000750

SCF Convergence by DM+H criterion
max |DM_out - DM_in|         :     0.0001080440
max |H_out - H_in|      (eV) :     0.0007497293
SCF cycle converged after 9 iterations

Using DM_out to compute the final energy and forces
No. of atoms with KB's overlaping orbs in proc 0. Max # of overlaps:       4      22

siesta: E_KS(eV) =             -898.4242

siesta: Atomic forces (eV/Ang):
----------------------------------------
   Tot   -0.000223    0.000326    0.000414
----------------------------------------
   Max    1.040161
   Res    0.470814    sqrt( Sum f_i^2 / 3N )
----------------------------------------
   Max    1.040161    constrained

Stress tensor Voigt[x,y,z,yz,xz,xy] (kbar):      -10.33       -0.36       -0.07        0.01       -0.15        0.03
(Free)E + p*V (eV/cell)     -896.2545
Target enthalpy (eV/cell)     -898.4935

siesta: Stress tensor (static) (eV/Ang**3):
        -0.000824   -0.000001    0.000051
        -0.000001    0.000006    0.000003
         0.000051    0.000003    0.000010

siesta: Pressure (static):          0.43137198  kBar

siesta: Stress tensor (total) (eV/Ang**3):
        -0.006450    0.000022   -0.000091
         0.000022   -0.000222    0.000006
        -0.000091    0.000006   -0.000045

siesta: Pressure (total):          3.58733577  kBar

siesta: Temp_ion =    7859.278 K

                     ====================================
                        Begin MD step =      4
                     ====================================

outcell: Unit cell vectors (Ang):
       10.000004    0.000000    0.000000
        0.000000   10.000004    0.000000
        0.000000    0.000000   10.000004

outcell: Cell vector modules (Ang)   :   10.000004   10.000004   10.000004
outcell: Cell angles (23,13,12) (deg):     90.0000     90.0000     90.0000
outcell: Cell volume (Ang**3)        :   1000.0012
<dSpData1D:S at geom step 4
  <sparsity:sparsity for geom step 4
    nrows_g=26 nrows=26 sparsity=1.0000 nnzs=676, refcount: 7>
  <dData1D:(new from dSpData1D) n=676, refcount: 1>
refcount: 1>
new_DM -- step:     4
Re-using DM from previous geometries...
Number of DMs in history: 1
 DM extrapolation coefficients: 
1   1.00000
New DM after history re-use:
<dSpData2D:SpM extrapolated using coords
  <sparsity:sparsity for geom step 4
    nrows_g=26 nrows=26 sparsity=1.0000 nnzs=676, refcount: 9>
  <dData2D:(temp array for extrapolation) n=676 m=1, refcount: 1>
refcount: 1>
Note: For starting DM, Qtot, Tr[D*S] =         14.00000000         13.94767610
No. of atoms with KB's overlaping orbs in proc 0. Max # of overlaps:       4      22

InitMesh: MESH = 90 x 90 x 90 = 729000
InitMesh: Mesh cutoff (required, used) =   200.000   223.865 Ry
New grid distribution [1]: sub = 2

        iscf     Eharris(eV)        E_KS(eV)     FreeEng(eV)     dDmax    Ef(eV) dHmax(eV)
   scf:    1     -897.920074     -898.276308     -898.345616  0.021132 -5.282581  0.636612
   scf:    2     -898.232579     -898.264185     -898.332537  0.094037 -5.848248  0.355474
   scf:    3     -898.281525     -898.274016     -898.343001  0.035207 -5.735368  0.228211
   scf:    4     -898.271026     -898.277695     -898.346893  0.077214 -5.767086  0.094397
   scf:    5     -898.278082     -898.279200     -898.348502  0.038587 -5.772066  0.038378
   scf:    6     -898.279364     -898.279299     -898.348610  0.004358 -5.777075  0.039570
   scf:    7     -898.279551     -898.279462     -898.348777  0.004258 -5.801092  0.002288
   scf:    8     -898.279464     -898.279464     -898.348778  0.000504 -5.800765  0.002281
   scf:    9     -898.279462     -898.279463     -898.348778  0.000644 -5.801990  0.001487
   scf:   10     -898.279463     -898.279463     -898.348778  0.000039 -5.802108  0.001238
   scf:   11     -898.279464     -898.279464     -898.348778  0.000513 -5.802590  0.000067
   scf:   12     -898.279464     -898.279464     -898.348778  0.000000 -5.802590  0.000064

SCF Convergence by DM+H criterion
max |DM_out - DM_in|         :     0.0000004516
max |H_out - H_in|      (eV) :     0.0000644607
SCF cycle converged after 12 iterations

Using DM_out to compute the final energy and forces
No. of atoms with KB's overlaping orbs in proc 0. Max # of overlaps:       4      22

siesta: E_KS(eV) =             -898.2795

siesta: Atomic forces (eV/Ang):
----------------------------------------
   Tot   -0.000184    0.000187    0.000275
----------------------------------------
   Max    2.216952
   Res    1.092198    sqrt( Sum f_i^2 / 3N )
----------------------------------------
   Max    2.216952    constrained

Stress tensor Voigt[x,y,z,yz,xz,xy] (kbar):       -8.73       -0.34       -0.03        0.04        0.15        0.16
(Free)E + p*V (eV/cell)     -896.4548
Target enthalpy (eV/cell)     -898.3488

siesta: Stress tensor (static) (eV/Ang**3):
         0.000357    0.000118    0.000276
         0.000118    0.000018    0.000023
         0.000276    0.000023    0.000038

siesta: Pressure (static):         -0.22074880  kBar

siesta: Stress tensor (total) (eV/Ang**3):
        -0.005447    0.000099    0.000097
         0.000099   -0.000213    0.000023
         0.000097    0.000023   -0.000022

siesta: Pressure (total):          3.03451876  kBar

siesta: Temp_ion =    7533.686 K

                     ====================================
                        Begin MD step =      5
                     ====================================

outcell: Unit cell vectors (Ang):
       10.000004    0.000000    0.000000
        0.000000   10.000004    0.000000
        0.000000    0.000000   10.000004

outcell: Cell vector modules (Ang)   :   10.000004   10.000004   10.000004
outcell: Cell angles (23,13,12) (deg):     90.0000     90.0000     90.0000
outcell: Cell volume (Ang**3)        :   1000.0012
<dSpData1D:S at geom step 5
  <sparsity:sparsity for geom step 5
    nrows_g=26 nrows=26 sparsity=1.0000 nnzs=676, refcount: 7>
  <dData1D:(new from dSpData1D) n=676, refcount: 1>
refcount: 1>
new_DM -- step:     5
Re-using DM from previous geometries...
Number of DMs in history: 1
 DM extrapolation coefficients: 
1   1.00000
New DM after history re-use:
<dSpData2D:SpM extrapolated using coords
  <sparsity:sparsity for geom step 5
    nrows_g=26 nrows=26 sparsity=1.0000 nnzs=676, refcount: 9>
  <dData2D:(temp array for extrapolation) n=676 m=1, refcount: 1>
refcount: 1>
Note: For starting DM, Qtot, Tr[D*S] =         14.00000000         13.96863413
No. of atoms with KB's overlaping orbs in proc 0. Max # of overlaps:       4      22

InitMesh: MESH = 90 x 90 x 90 = 729000
InitMesh: Mesh cutoff (required, used) =   200.000   223.865 Ry
New grid distribution [1]: sub = 2

        iscf     Eharris(eV)        E_KS(eV)     FreeEng(eV)     dDmax    Ef(eV) dHmax(eV)
   scf:    1     -897.898966     -898.136956     -898.206271  0.012620 -5.470802  0.400211
   scf:    2     -898.130243     -898.135514     -898.204802  0.021816 -5.817779  0.222505
   scf:    3     -898.138590     -898.137211     -898.206517  0.007935 -5.740961  0.148548
   scf:    4     -898.137411     -898.137945     -898.207241  0.022561 -5.771001  0.029668
   scf:    5     -898.138054     -898.138166     -898.207479  0.014435 -5.773817  0.024639
   scf:    6     -898.138195     -898.138184     -898.207496  0.001258 -5.787692  0.016133
   scf:    7     -898.138240     -898.138228     -898.207543  0.004038 -5.787834  0.001351
   scf:    8     -898.138228     -898.138228     -898.207543  0.000102 -5.788398  0.000314

SCF Convergence by DM+H criterion
max |DM_out - DM_in|         :     0.0001017381
max |H_out - H_in|      (eV) :     0.0003138893
SCF cycle converged after 8 iterations

Using DM_out to compute the final energy and forces
No. of atoms with KB's overlaping orbs in proc 0. Max # of overlaps:       4      22

siesta: E_KS(eV) =             -898.1382

siesta: Atomic forces (eV/Ang):
----------------------------------------
   Tot   -0.000743   -0.000020    0.000314
----------------------------------------
   Max    2.828692
   Res    1.378434    sqrt( Sum f_i^2 / 3N )
----------------------------------------
   Max    2.828692    constrained

Stress tensor Voigt[x,y,z,yz,xz,xy] (kbar):       -7.75       -0.32        0.02        0.08        0.49        0.30
(Free)E + p*V (eV/cell)     -896.5334
Target enthalpy (eV/cell)     -898.2075

siesta: Stress tensor (static) (eV/Ang**3):
         0.000728    0.000183    0.000429
         0.000183    0.000028    0.000043
         0.000429    0.000043    0.000064

siesta: Pressure (static):         -0.43811080  kBar

siesta: Stress tensor (total) (eV/Ang**3):
        -0.004838    0.000185    0.000308
         0.000185   -0.000199    0.000050
         0.000308    0.000050    0.000014

siesta: Pressure (total):          2.68229814  kBar

siesta: Temp_ion =    7191.911 K

                     ====================================
                        Begin MD step =      6
                     ====================================

outcell: Unit cell vectors (Ang):
       10.000004    0.000000    0.000000
        0.000000   10.000004    0.000000
        0.000000    0.000000   10.000004

outcell: Cell vector modules (Ang)   :   10.000004   10.000004   10.000004
outcell: Cell angles (23,13,12) (deg):     90.0000     90.0000     90.0000
outcell: Cell volume (Ang**3)        :   1000.0012
<dSpData1D:S at geom step 6
  <sparsity:sparsity for geom step 6
    nrows_g=26 nrows=26 sparsity=1.0000 nnzs=676, refcount: 7>
  <dData1D:(new from dSpData1D) n=676, refcount: 1>
refcount: 1>
new_DM -- step:     6
Re-using DM from previous geometries...
Number of DMs in history: 1
 DM extrapolation coefficients: 
1   1.00000
New DM after history re-use:
<dSpData2D:SpM extrapolated using coords
  <sparsity:sparsity for geom step 6
    nrows_g=26 nrows=26 sparsity=1.0000 nnzs=676, refcount: 9>
  <dData2D:(temp array for extrapolation) n=676 m=1, refcount: 1>
refcount: 1>
No. of atoms with KB's overlaping orbs in proc 0. Max # of overlaps:       4      22

InitMesh: MESH = 90 x 90 x 90 = 729000
InitMesh: Mesh cutoff (required, used) =   200.000   223.865 Ry
New grid distribution [1]: sub = 2

        iscf     Eharris(eV)        E_KS(eV)     FreeEng(eV)     dDmax    Ef(eV) dHmax(eV)
   scf:    1     -898.099322     -898.141013     -898.210327  0.012758 -5.779615  0.016820
   scf:    2     -898.139153     -898.140445     -898.209709  0.015780 -5.791855  0.029964
   scf:    3     -898.141240     -898.140990     -898.210300  0.010101 -5.785264  0.012135
   scf:    4     -898.141043     -898.141047     -898.210361  0.004518 -5.787699  0.003863
   scf:    5     -898.141048     -898.141048     -898.210362  0.000221 -5.787939  0.000948

SCF Convergence by DM+H criterion
max |DM_out - DM_in|         :     0.0002206475
max |H_out - H_in|      (eV) :     0.0009484060
SCF cycle converged after 5 iterations

Using DM_out to compute the final energy and forces
No. of atoms with KB's overlaping orbs in proc 0. Max # of overlaps:       4      22

siesta: E_KS(eV) =             -898.1410

siesta: Atomic forces (eV/Ang):
----------------------------------------
   Tot   -0.000978   -0.000158   -0.000139
----------------------------------------
   Max    2.814878
   Res    1.415386    sqrt( Sum f_i^2 / 3N )
----------------------------------------
   Max    2.814878    constrained

Stress tensor Voigt[x,y,z,yz,xz,xy] (kbar):       -7.67       -0.30        0.07        0.12        0.72        0.35
(Free)E + p*V (eV/cell)     -896.5677
Target enthalpy (eV/cell)     -898.2104

siesta: Stress tensor (static) (eV/Ang**3):
         0.000538    0.000180    0.000485
         0.000178    0.000032    0.000056
         0.000486    0.000056    0.000080

siesta: Pressure (static):         -0.34701034  kBar

siesta: Stress tensor (total) (eV/Ang**3):
        -0.004787    0.000218    0.000448
         0.000216   -0.000188    0.000076
         0.000448    0.000076    0.000046

siesta: Pressure (total):          2.63183760  kBar

siesta: Temp_ion =    7199.503 K

                     ====================================
                        Begin MD step =      7
                     ====================================

outcell: Unit cell vectors (Ang):
       10.000004    0.000000    0.000000
        0.000000   10.000004    0.000000
        0.000000    0.000000   10.000004

outcell: Cell vector modules (Ang)   :   10.000004   10.000004   10.000004
outcell: Cell angles (23,13,12) (deg):     90.0000     90.0000     90.0000
outcell: Cell volume (Ang**3)        :   1000.0012
<dSpData1D:S at geom step 7
  <sparsity:sparsity for geom step 7
    nrows_g=26 nrows=26 sparsity=.9882 nnzs=668, refcount: 7>
  <dData1D:(new from dSpData1D) n=668, refcount: 1>
refcount: 1>
new_DM -- step:     7
Re-using DM from previous geometries...
Number of DMs in history: 1
 DM extrapolation coefficients: 
1   1.00000
New DM after history re-use:
<dSpData2D:SpM extrapolated using coords
  <sparsity:sparsity for geom step 7
    nrows_g=26 nrows=26 sparsity=.9882 nnzs=668, refcount: 9>
  <dData2D:(temp array for extrapolation) n=668 m=1, refcount: 1>
refcount: 1>
Note: For starting DM, Qtot, Tr[D*S] =         14.00000000         14.03394723
No. of atoms with KB's overlaping orbs in proc 0. Max # of overlaps:       4      22

InitMesh: MESH = 90 x 90 x 90 = 729000
InitMesh: Mesh cutoff (required, used) =   200.000   223.865 Ry
New grid distribution [1]: sub = 2

        iscf     Eharris(eV)        E_KS(eV)     FreeEng(eV)     dDmax    Ef(eV) dHmax(eV)
   scf:    1     -898.439765     -898.287097     -898.356411  0.013004 -6.107250  0.398624
   scf:    2     -898.272677     -898.283147     -898.352443  0.017049 -5.777436  0.286493
   scf:    3     -898.289322     -898.286643     -898.355954  0.006780 -5.874564  0.203859
   scf:    4     -898.287712     -898.287982     -898.357281  0.013464 -5.818037  0.024581
   scf:    5     -898.288076     -898.288153     -898.357467  0.010265 -5.815011  0.021646
   scf:    6     -898.288166     -898.288167     -898.357482  0.001002 -5.814827  0.018922
   scf:    7     -898.288211     -898.288198     -898.357513  0.001103 -5.804966  0.001329
   scf:    8     -898.288198     -898.288198     -898.357513  0.000232 -5.804890  0.000646

SCF Convergence by DM+H criterion
max |DM_out - DM_in|         :     0.0002323753
max |H_out - H_in|      (eV) :     0.0006464332
SCF cycle converged after 8 iterations

Using DM_out to compute the final energy and forces
No. of atoms with KB's overlaping orbs in proc 0. Max # of overlaps:       4      22

siesta: E_KS(eV) =             -898.2882

siesta: Atomic forces (eV/Ang):
----------------------------------------
   Tot    0.000215    0.000121    0.000094
----------------------------------------
   Max    2.186541
   Res    1.211451    sqrt( Sum f_i^2 / 3N )
----------------------------------------
   Max    2.186541    constrained

Stress tensor Voigt[x,y,z,yz,xz,xy] (kbar):       -8.84       -0.30        0.09        0.14        0.68        0.22
(Free)E + p*V (eV/cell)     -896.4730
Target enthalpy (eV/cell)     -898.3575

siesta: Stress tensor (static) (eV/Ang**3):
        -0.000168    0.000091    0.000409
         0.000091    0.000024    0.000053
         0.000409    0.000053    0.000074

siesta: Pressure (static):          0.03735614  kBar

siesta: Stress tensor (total) (eV/Ang**3):
        -0.005520    0.000138    0.000426
         0.000138   -0.000189    0.000086
         0.000426    0.000086    0.000056

siesta: Pressure (total):          3.01934838  kBar

siesta: Temp_ion =    7556.889 K

                     ====================================
                        Begin MD step =      8
                     ====================================

outcell: Unit cell vectors (Ang):
       10.000004    0.000000    0.000000
        0.000000   10.000004    0.000000
        0.000000    0.000000   10.000004

outcell: Cell vector modules (Ang)   :   10.000004   10.000004   10.000004
outcell: Cell angles (23,13,12) (deg):     90.0000     90.0000     90.0000
outcell: Cell volume (Ang**3)        :   1000.0012
Gamma-point calculation with multiply-connected orbital pairs
Gamma-point calculation with multiply-connected orbital pairs
Folding of H and S implicitly performed
Folding of H and S implicitly performed
<dSpData1D:S at geom step 8
  <sparsity:sparsity for geom step 8
    nrows_g=26 nrows=26 sparsity=1.0000 nnzs=676, refcount: 7>
  <dData1D:(new from dSpData1D) n=676, refcount: 1>
refcount: 1>
new_DM -- step:     8
Re-using DM from previous geometries...
Number of DMs in history: 1
 DM extrapolation coefficients: 
1   1.00000
New DM after history re-use:
<dSpData2D:SpM extrapolated using coords
  <sparsity:sparsity for geom step 8
    nrows_g=26 nrows=26 sparsity=1.0000 nnzs=676, refcount: 9>
  <dData2D:(temp array for extrapolation) n=676 m=1, refcount: 1>
refcount: 1>
Note: For starting DM, Qtot, Tr[D*S] =         14.00000000         14.05725588
No. of atoms with KB's overlaping orbs in proc 0. Max # of overlaps:       4      26

InitMesh: MESH = 90 x 90 x 90 = 729000
InitMesh: Mesh cutoff (required, used) =   200.000   223.865 Ry
New grid distribution [1]: sub = 2

        iscf     Eharris(eV)        E_KS(eV)     FreeEng(eV)     dDmax    Ef(eV) dHmax(eV)
   scf:    1     -898.712136     -898.436850     -898.506162  0.021856 -6.352063  0.712293
   scf:    2     -898.362432     -898.415640     -898.484731  0.059780 -5.782285  0.632817
   scf:    3     -898.448642     -898.434964     -898.504234  0.028460 -5.987214  0.423025
   scf:    4     -898.434614     -898.438983     -898.508146  0.052500 -5.862893  0.052877
   scf:    5     -898.440671     -898.440763     -898.510078  0.029538 -5.852876  0.043036
   scf:    6     -898.440801     -898.440792     -898.510106  0.000910 -5.856474  0.035378
   scf:    7     -898.440969     -898.440903     -898.510218  0.001736 -5.835185  0.002212
   scf:    8     -898.440903     -898.440903     -898.510218  0.000162 -5.835550  0.001775
   scf:    9     -898.440902     -898.440903     -898.510217  0.000502 -5.834676  0.001127
   scf:   10     -898.440903     -898.440903     -898.510217  0.000015 -5.834546  0.000840

SCF Convergence by DM+H criterion
max |DM_out - DM_in|         :     0.0000149920
max |H_out - H_in|      (eV) :     0.0008398460
SCF cycle converged after 10 iterations

Using DM_out to compute the final energy and forces
No. of atoms with KB's overlaping orbs in proc 0. Max # of overlaps:       4      26

siesta: E_KS(eV) =             -898.4409

siesta: Atomic forces (eV/Ang):
----------------------------------------
   Tot   -0.002573    0.000243    0.000120
----------------------------------------
   Max    1.836570
   Res    0.763181    sqrt( Sum f_i^2 / 3N )
----------------------------------------
   Max    1.836570    constrained

Stress tensor Voigt[x,y,z,yz,xz,xy] (kbar):      -11.53       -0.35        0.02        0.09        0.23       -0.18
(Free)E + p*V (eV/cell)     -896.0423
Target enthalpy (eV/cell)     -898.5102

siesta: Stress tensor (static) (eV/Ang**3):
        -0.001560   -0.000135    0.000121
        -0.000135   -0.000007    0.000017
         0.000121    0.000017    0.000024

siesta: Pressure (static):          0.82396245  kBar

siesta: Stress tensor (total) (eV/Ang**3):
        -0.007198   -0.000115    0.000146
        -0.000115   -0.000219    0.000057
         0.000146    0.000057    0.000014

siesta: Pressure (total):          3.95398187  kBar

siesta: Temp_ion =    7904.153 K

                     ====================================
                        Begin MD step =      9
                     ====================================

outcell: Unit cell vectors (Ang):
       10.000004    0.000000    0.000000
        0.000000   10.000004    0.000000
        0.000000    0.000000   10.000004

outcell: Cell vector modules (Ang)   :   10.000004   10.000004   10.000004
outcell: Cell angles (23,13,12) (deg):     90.0000     90.0000     90.0000
outcell: Cell volume (Ang**3)        :   1000.0012
<dSpData1D:S at geom step 9
  <sparsity:sparsity for geom step 9
    nrows_g=26 nrows=26 sparsity=1.0000 nnzs=676, refcount: 7>
  <dData1D:(new from dSpData1D) n=676, refcount: 1>
refcount: 1>
new_DM -- step:     9
Re-using DM from previous geometries...
Number of DMs in history: 1
 DM extrapolation coefficients: 
1   1.00000
New DM after history re-use:
<dSpData2D:SpM extrapolated using coords
  <sparsity:sparsity for geom step 9
    nrows_g=26 nrows=26 sparsity=1.0000 nnzs=676, refcount: 9>
  <dData2D:(temp array for extrapolation) n=676 m=1, refcount: 1>
refcount: 1>
Note: For starting DM, Qtot, Tr[D*S] =         14.00000000         14.05654249
No. of atoms with KB's overlaping orbs in proc 0. Max # of overlaps:       4      26

InitMesh: MESH = 90 x 90 x 90 = 729000
InitMesh: Mesh cutoff (required, used) =   200.000   223.865 Ry
New grid distribution [1]: sub = 2

        iscf     Eharris(eV)        E_KS(eV)     FreeEng(eV)     dDmax    Ef(eV) dHmax(eV)
   scf:    1     -898.639162     -898.356235     -898.425542  0.024009 -6.381459  0.740087
   scf:    2     -898.204278     -898.311416     -898.379921  0.082340 -5.822401  0.832908
   scf:    3     -898.380474     -898.354290     -898.423496  0.046053 -6.079698  0.493507
   scf:    4     -898.342551     -898.356336     -898.425208  0.065876 -5.919805  0.085153
   scf:    5     -898.361754     -898.361427     -898.430741  0.041887 -5.896936  0.050145
   scf:    6     -898.361532     -898.361498     -898.430812  0.001643 -5.904840  0.038327
   scf:    7     -898.361696     -898.361619     -898.430934  0.001178 -5.880730  0.002764
   scf:    8     -898.361620     -898.361620     -898.430935  0.000470 -5.881420  0.002189
   scf:    9     -898.361619     -898.361620     -898.430935  0.000503 -5.880772  0.001974
   scf:   10     -898.361620     -898.361620     -898.430935  0.000056 -5.880703  0.001718
   scf:   11     -898.361620     -898.361620     -898.430935  0.000412 -5.880328  0.000310
   scf:   12     -898.361620     -898.361620     -898.430935  0.000053 -5.880290  0.000304

SCF Convergence by DM+H criterion
max |DM_out - DM_in|         :     0.0000533437
max |H_out - H_in|      (eV) :     0.0003038523
SCF cycle converged after 12 iterations

Using DM_out to compute the final energy and forces
No. of atoms with KB's overlaping orbs in proc 0. Max # of overlaps:       4      26

siesta: E_KS(eV) =             -898.3616

siesta: Atomic forces (eV/Ang):
----------------------------------------
   Tot   -0.002435    0.000252    0.000091
----------------------------------------
   Max    2.655793
   Res    1.261691    sqrt( Sum f_i^2 / 3N )
----------------------------------------
   Max    2.655793    constrained

Stress tensor Voigt[x,y,z,yz,xz,xy] (kbar):      -15.03       -0.47       -0.17       -0.05       -0.65       -0.88
(Free)E + p*V (eV/cell)     -895.1699
Target enthalpy (eV/cell)     -898.4309

siesta: Stress tensor (static) (eV/Ang**3):
        -0.003477   -0.000528   -0.000418
        -0.000528   -0.000077   -0.000075
        -0.000418   -0.000075   -0.000099

siesta: Pressure (static):          1.95090228  kBar

siesta: Stress tensor (total) (eV/Ang**3):
        -0.009382   -0.000550   -0.000406
        -0.000550   -0.000294   -0.000032
        -0.000406   -0.000032   -0.000107

siesta: Pressure (total):          5.22475675  kBar

siesta: Temp_ion =    7706.750 K

                     ====================================
                        Begin MD step =     10
                     ====================================

outcell: Unit cell vectors (Ang):
       10.000004    0.000000    0.000000
        0.000000   10.000004    0.000000
        0.000000    0.000000   10.000004

outcell: Cell vector modules (Ang)   :   10.000004   10.000004   10.000004
outcell: Cell angles (23,13,12) (deg):     90.0000     90.0000     90.0000
outcell: Cell volume (Ang**3)        :   1000.0012
<dSpData1D:S at geom step 10
  <sparsity:sparsity for geom step 10
    nrows_g=26 nrows=26 sparsity=1.0000 nnzs=676, refcount: 7>
  <dData1D:(new from dSpData1D) n=676, refcount: 1>
refcount: 1>
new_DM -- step:    10
Re-using DM from previous geometries...
Number of DMs in history: 1
 DM extrapolation coefficients: 
1   1.00000
New DM after history re-use:
<dSpData2D:SpM extrapolated using coords
  <sparsity:sparsity for geom step 10
    nrows_g=26 nrows=26 sparsity=1.0000 nnzs=676, refcount: 9>
  <dData2D:(temp array for extrapolation) n=676 m=1, refcount: 1>
refcount: 1>
Note: For starting DM, Qtot, Tr[D*S] =         14.00000000         14.02556524
No. of atoms with KB's overlaping orbs in proc 0. Max # of overlaps:       4      26

InitMesh: MESH = 90 x 90 x 90 = 729000
InitMesh: Mesh cutoff (required, used) =   200.000   223.865 Ry
New grid distribution [1]: sub = 2

        iscf     Eharris(eV)        E_KS(eV)     FreeEng(eV)     dDmax    Ef(eV) dHmax(eV)
   scf:    1     -898.376550     -898.186566     -898.255880  0.013132 -6.144553  0.386604
   scf:    2     -898.076849     -898.153736     -898.222949  0.047779 -5.913194  0.717809
   scf:    3     -898.201609     -898.188281     -898.257592  0.034311 -6.067707  0.244219
   scf:    4     -898.187611     -898.188837     -898.258100  0.021756 -5.967174  0.031614
   scf:    5     -898.189601     -898.189353     -898.258662  0.009753 -5.960557  0.023318
   scf:    6     -898.189415     -898.189427     -898.258742  0.005573 -5.963509  0.017498
   scf:    7     -898.189471     -898.189454     -898.258769  0.001101 -5.948069  0.001195
   scf:    8     -898.189454     -898.189454     -898.258769  0.000147 -5.948616  0.000994

SCF Convergence by DM+H criterion
max |DM_out - DM_in|         :     0.0001469535
max |H_out - H_in|      (eV) :     0.0009936043
SCF cycle converged after 8 iterations

Using DM_out to compute the final energy and forces
No. of atoms with KB's overlaping orbs in proc 0. Max # of overlaps:       4      26

siesta: E_KS(eV) =             -898.1895

siesta: Atomic forces (eV/Ang):
----------------------------------------
   Tot   -0.003004   -0.000482   -0.000206
----------------------------------------
   Max    4.843038
   Res    2.107240    sqrt( Sum f_i^2 / 3N )
----------------------------------------
   Max    4.843038    constrained

Stress tensor Voigt[x,y,z,yz,xz,xy] (kbar):      -16.05       -0.60       -0.39       -0.22       -1.32       -1.38
(Free)E + p*V (eV/cell)     -894.7134
Target enthalpy (eV/cell)     -898.2588

siesta: Stress tensor (static) (eV/Ang**3):
        -0.004274   -0.000823   -0.000862
        -0.000823   -0.000153   -0.000178
        -0.000862   -0.000178   -0.000232

siesta: Pressure (static):          2.48815018  kBar

siesta: Stress tensor (total) (eV/Ang**3):
        -0.010018   -0.000859   -0.000825
        -0.000859   -0.000375   -0.000135
        -0.000825   -0.000135   -0.000242

siesta: Pressure (total):          5.68024143  kBar

siesta: Temp_ion =    7370.723 K

                     ====================================
                        Begin MD step =     11
                     ====================================

outcell: Unit cell vectors (Ang):
       10.000004    0.000000    0.000000
        0.000000   10.000004    0.000000
        0.000000    0.000000   10.000004

outcell: Cell vector modules (Ang)   :   10.000004   10.000004   10.000004
outcell: Cell angles (23,13,12) (deg):     90.0000     90.0000     90.0000
outcell: Cell volume (Ang**3)        :   1000.0012
<dSpData1D:S at geom step 11
  <sparsity:sparsity for geom step 11
    nrows_g=26 nrows=26 sparsity=1.0000 nnzs=676, refcount: 7>
  <dData1D:(new from dSpData1D) n=676, refcount: 1>
refcount: 1>
new_DM -- step:    11
Re-using DM from previous geometries...
Number of DMs in history: 1
 DM extrapolation coefficients: 
1   1.00000
New DM after history re-use:
<dSpData2D:SpM extrapolated using coords
  <sparsity:sparsity for geom step 11
    nrows_g=26 nrows=26 sparsity=1.0000 nnzs=676, refcount: 9>
  <dData2D:(temp array for extrapolation) n=676 m=1, refcount: 1>
refcount: 1>
No. of atoms with KB's overlaping orbs in proc 0. Max # of overlaps:       4      26

InitMesh: MESH = 90 x 90 x 90 = 729000
InitMesh: Mesh cutoff (required, used) =   200.000   223.865 Ry
New grid distribution [1]: sub = 2

        iscf     Eharris(eV)        E_KS(eV)     FreeEng(eV)     dDmax    Ef(eV) dHmax(eV)
   scf:    1     -898.457324     -898.392912     -898.462216  0.014342 -5.850324  0.307460
   scf:    2     -898.295830     -898.363075     -898.431461  0.103559 -6.050894  0.578614
   scf:    3     -898.403219     -898.393518     -898.462812  0.079337 -5.910042  0.204161
   scf:    4     -898.381210     -898.390474     -898.459454  0.058140 -6.014482  0.110572
   scf:    5     -898.394228     -898.394224     -898.463538  0.045623 -6.024184  0.034046
   scf:    6     -898.394219     -898.394225     -898.463540  0.001116 -6.044906  0.011548
   scf:    7     -898.394248     -898.394239     -898.463554  0.000683 -6.044094  0.001039
   scf:    8     -898.394240     -898.394239     -898.463554  0.000088 -6.043810  0.000838

SCF Convergence by DM+H criterion
max |DM_out - DM_in|         :     0.0000878134
max |H_out - H_in|      (eV) :     0.0008379992
SCF cycle converged after 8 iterations

Using DM_out to compute the final energy and forces
No. of atoms with KB's overlaping orbs in proc 0. Max # of overlaps:       4      26

siesta: E_KS(eV) =             -898.3942

siesta: Atomic forces (eV/Ang):
----------------------------------------
   Tot   -0.001908    0.000058   -0.000671
----------------------------------------
   Max    2.700584
   Res    1.180580    sqrt( Sum f_i^2 / 3N )
----------------------------------------
   Max    2.700584    constrained

Stress tensor Voigt[x,y,z,yz,xz,xy] (kbar):      -12.42       -0.57       -0.34       -0.18       -0.87       -0.96
(Free)E + p*V (eV/cell)     -895.6898
Target enthalpy (eV/cell)     -898.4636

siesta: Stress tensor (static) (eV/Ang**3):
        -0.002321   -0.000533   -0.000574
        -0.000533   -0.000113   -0.000133
        -0.000574   -0.000133   -0.000171

siesta: Pressure (static):          1.39111490  kBar

siesta: Stress tensor (total) (eV/Ang**3):
        -0.007755   -0.000601   -0.000542
        -0.000601   -0.000357   -0.000112
        -0.000542   -0.000112   -0.000209

siesta: Pressure (total):          4.44402556  kBar

siesta: Temp_ion =    7793.747 K

                     ====================================
                        Begin MD step =     12
                     ====================================

outcell: Unit cell vectors (Ang):
       10.000004    0.000000    0.000000
        0.000000   10.000004    0.000000
        0.000000    0.000000   10.000004

outcell: Cell vector modules (Ang)   :   10.000004   10.000004   10.000004
outcell: Cell angles (23,13,12) (deg):     90.0000     90.0000     90.0000
outcell: Cell volume (Ang**3)        :   1000.0012
<dSpData1D:S at geom step 12
  <sparsity:sparsity for geom step 12
    nrows_g=26 nrows=26 sparsity=1.0000 nnzs=676, refcount: 7>
  <dData1D:(new from dSpData1D) n=676, refcount: 1>
refcount: 1>
new_DM -- step:    12
Re-using DM from previous geometries...
Number of DMs in history: 1
 DM extrapolation coefficients: 
1   1.00000
New DM after history re-use:
<dSpData2D:SpM extrapolated using coords
  <sparsity:sparsity for geom step 12
    nrows_g=26 nrows=26 sparsity=1.0000 nnzs=676, refcount: 9>
  <dData2D:(temp array for extrapolation) n=676 m=1, refcount: 1>
refcount: 1>
Note: For starting DM, Qtot, Tr[D*S] =         14.00000000         13.96068291
No. of atoms with KB's overlaping orbs in proc 0. Max # of overlaps:       4      26

InitMesh: MESH = 90 x 90 x 90 = 729000
InitMesh: Mesh cutoff (required, used) =   200.000   223.865 Ry
New grid distribution [1]: sub = 2

        iscf     Eharris(eV)        E_KS(eV)     FreeEng(eV)     dDmax    Ef(eV) dHmax(eV)
   scf:    1     -898.433040     -898.511299     -898.580549  0.031170 -5.709454  0.625395
   scf:    2     -898.225916     -898.423162     -898.486267  0.181798 -6.225125  0.709363
   scf:    3     -898.544006     -898.498498     -898.566781  0.097304 -6.007156  0.436388
   scf:    4     -898.451576     -898.501373     -898.569505  0.130562 -6.149788  0.161218
   scf:    5     -898.472861     -898.488250     -898.555217  0.026653 -6.160228  0.176679
   scf:    6     -898.507402     -898.514451     -898.583744  0.104119 -6.164626  0.015358
   scf:    7     -898.513072     -898.514498     -898.583770  0.021503 -6.160113  0.020440
   scf:    8     -898.514699     -898.514859     -898.584173  0.012964 -6.168359  0.003306
   scf:    9     -898.514839     -898.514869     -898.584180  0.003584 -6.168349  0.003913
   scf:   10     -898.514872     -898.514875     -898.584189  0.002038 -6.169671  0.001835
   scf:   11     -898.514875     -898.514875     -898.584189  0.000145 -6.169621  0.001684
   scf:   12     -898.514875     -898.514875     -898.584188  0.000130 -6.169632  0.001251
   scf:   13     -898.514875     -898.514875     -898.584189  0.000047 -6.169717  0.001098
   scf:   14     -898.514875     -898.514875     -898.584189  0.000168 -6.169920  0.000655

SCF Convergence by DM+H criterion
max |DM_out - DM_in|         :     0.0001675599
max |H_out - H_in|      (eV) :     0.0006554340
SCF cycle converged after 14 iterations

Using DM_out to compute the final energy and forces
No. of atoms with KB's overlaping orbs in proc 0. Max # of overlaps:       4      26

siesta: E_KS(eV) =             -898.5149

siesta: Atomic forces (eV/Ang):
----------------------------------------
   Tot   -0.002604   -0.001007   -0.001483
----------------------------------------
   Max    0.372460
   Res    0.165687    sqrt( Sum f_i^2 / 3N )
----------------------------------------
   Max    0.372460    constrained

Stress tensor Voigt[x,y,z,yz,xz,xy] (kbar):       -8.41       -0.43       -0.10       -0.00       -0.03       -0.19
(Free)E + p*V (eV/cell)     -896.7232
Target enthalpy (eV/cell)     -898.5842

siesta: Stress tensor (static) (eV/Ang**3):
         0.000395    0.000082    0.000098
         0.000082    0.000022    0.000029
         0.000098    0.000029    0.000044

siesta: Pressure (static):         -0.24652652  kBar

siesta: Stress tensor (total) (eV/Ang**3):
        -0.005252   -0.000118   -0.000016
        -0.000118   -0.000268   -0.000003
        -0.000016   -0.000003   -0.000063

siesta: Pressure (total):          2.98159835  kBar

siesta: Temp_ion =    8092.006 K

                     ====================================
                        Begin MD step =     13
                     ====================================

outcell: Unit cell vectors (Ang):
       10.000004    0.000000    0.000000
        0.000000   10.000004    0.000000
        0.000000    0.000000   10.000004

outcell: Cell vector modules (Ang)   :   10.000004   10.000004   10.000004
outcell: Cell angles (23,13,12) (deg):     90.0000     90.0000     90.0000
outcell: Cell volume (Ang**3)        :   1000.0012
<dSpData1D:S at geom step 13
  <sparsity:sparsity for geom step 13
    nrows_g=26 nrows=26 sparsity=1.0000 nnzs=676, refcount: 7>
  <dData1D:(new from dSpData1D) n=676, refcount: 1>
refcount: 1>
new_DM -- step:    13
Re-using DM from previous geometries...
Number of DMs in history: 1
 DM extrapolation coefficients: 
1   1.00000
New DM after history re-use:
<dSpData2D:SpM extrapolated using coords
  <sparsity:sparsity for geom step 13
    nrows_g=26 nrows=26 sparsity=1.0000 nnzs=676, refcount: 9>
  <dData2D:(temp array for extrapolation) n=676 m=1, refcount: 1>
refcount: 1>
Note: For starting DM, Qtot, Tr[D*S] =         14.00000000         13.95954211
No. of atoms with KB's overlaping orbs in proc 0. Max # of overlaps:       4      26

InitMesh: MESH = 90 x 90 x 90 = 729000
InitMesh: Mesh cutoff (required, used) =   200.000   223.865 Ry
New grid distribution [1]: sub = 2

        iscf     Eharris(eV)        E_KS(eV)     FreeEng(eV)     dDmax    Ef(eV) dHmax(eV)
   scf:    1     -898.179394     -898.368403     -898.437555  0.045403 -5.820013  0.739912
   scf:    2     -897.753230     -898.178742     -898.234166  0.275623 -6.411099  1.061113
   scf:    3     -898.442589     -898.349214     -898.416786  0.160411 -6.111016  0.539780
   scf:    4     -898.126219     -898.315948     -898.379778  0.229535 -6.319466  0.188077
   scf:    5     -898.251617     -898.285371     -898.346377  0.032452 -6.332799  0.213931
   scf:    6     -898.057626     -898.317896     -898.382405  0.310071 -6.323642  0.176212
   scf:    7     -898.393279     -898.372904     -898.442016  0.106301 -6.309710  0.035853
   scf:    8     -898.345906     -898.368947     -898.437573  0.079228 -6.312059  0.057026
   scf:    9     -898.372199     -898.375681     -898.444984  0.057184 -6.315735  0.011511
   scf:   10     -898.376080     -898.375933     -898.445248  0.005815 -6.316180  0.004795
   scf:   11     -898.375980     -898.375985     -898.445296  0.004266 -6.316847  0.001665
   scf:   12     -898.375983     -898.375985     -898.445297  0.000802 -6.316302  0.001421
   scf:   13     -898.375985     -898.375985     -898.445297  0.000047 -6.316637  0.001164
   scf:   14     -898.375985     -898.375985     -898.445297  0.000262 -6.317136  0.000618

SCF Convergence by DM+H criterion
max |DM_out - DM_in|         :     0.0002623350
max |H_out - H_in|      (eV) :     0.0006179618
SCF cycle converged after 14 iterations

Using DM_out to compute the final energy and forces
No. of atoms with KB's overlaping orbs in proc 0. Max # of overlaps:       4      26

siesta: E_KS(eV) =             -898.3760

siesta: Atomic forces (eV/Ang):
----------------------------------------
   Tot   -0.000353   -0.000819   -0.000743
----------------------------------------
   Max    2.021654
   Res    0.920093    sqrt( Sum f_i^2 / 3N )
----------------------------------------
   Max    2.021654    constrained

Stress tensor Voigt[x,y,z,yz,xz,xy] (kbar):       -5.82       -0.26        0.17        0.19        0.68        0.53
(Free)E + p*V (eV/cell)     -897.2140
Target enthalpy (eV/cell)     -898.4453

siesta: Stress tensor (static) (eV/Ang**3):
         0.002194    0.000597    0.000614
         0.000597    0.000147    0.000177
         0.000614    0.000177    0.000241

siesta: Pressure (static):         -1.37893897  kBar

siesta: Stress tensor (total) (eV/Ang**3):
        -0.003634    0.000332    0.000425
         0.000332   -0.000163    0.000121
         0.000425    0.000121    0.000103

siesta: Pressure (total):          1.97272290  kBar

siesta: Temp_ion =    7779.877 K

                     ====================================
                        Begin MD step =     14
                     ====================================

outcell: Unit cell vectors (Ang):
       10.000004    0.000000    0.000000
        0.000000   10.000004    0.000000
        0.000000    0.000000   10.000004

outcell: Cell vector modules (Ang)   :   10.000004   10.000004   10.000004
outcell: Cell angles (23,13,12) (deg):     90.0000     90.0000     90.0000
outcell: Cell volume (Ang**3)        :   1000.0012
<dSpData1D:S at geom step 14
  <sparsity:sparsity for geom step 14
    nrows_g=26 nrows=26 sparsity=1.0000 nnzs=676, refcount: 7>
  <dData1D:(new from dSpData1D) n=676, refcount: 1>
refcount: 1>
new_DM -- step:    14
Re-using DM from previous geometries...
Number of DMs in history: 1
 DM extrapolation coefficients: 
1   1.00000
New DM after history re-use:
<dSpData2D:SpM extrapolated using coords
  <sparsity:sparsity for geom step 14
    nrows_g=26 nrows=26 sparsity=1.0000 nnzs=676, refcount: 9>
  <dData2D:(temp array for extrapolation) n=676 m=1, refcount: 1>
refcount: 1>
Note: For starting DM, Qtot, Tr[D*S] =         14.00000000         13.98033086
No. of atoms with KB's overlaping orbs in proc 0. Max # of overlaps:       4      26

InitMesh: MESH = 90 x 90 x 90 = 729000
InitMesh: Mesh cutoff (required, used) =   200.000   223.865 Ry
New grid distribution [1]: sub = 2

        iscf     Eharris(eV)        E_KS(eV)     FreeEng(eV)     dDmax    Ef(eV) dHmax(eV)
   scf:    1     -898.004407     -898.194952     -898.263988  0.052730 -6.147645  0.646599
   scf:    2     -897.129056     -897.865373     -897.913914  0.364820 -6.560946  1.526767
   scf:    3     -898.297101     -898.194580     -898.263335  0.274631 -6.263186  0.416705
   scf:    4     -897.771659     -898.081242     -898.138827  0.289904 -6.472859  0.281101
   scf:    5     -898.121529     -898.101888     -898.161450  0.019788 -6.485496  0.256766
   scf:    6     -898.008627     -898.176089     -898.243138  0.322677 -6.470416  0.134452
   scf:    7     -898.210552     -898.204821     -898.274127  0.099498 -6.463822  0.033823
   scf:    8     -898.205185     -898.205213     -898.274518  0.013255 -6.470204  0.024757
   scf:    9     -898.205318     -898.205282     -898.274587  0.003001 -6.471099  0.002336
   scf:   10     -898.205283     -898.205283     -898.274589  0.000335 -6.471065  0.001939
   scf:   11     -898.205282     -898.205283     -898.274591  0.000890 -6.471501  0.001202
   scf:   12     -898.205283     -898.205283     -898.274591  0.000196 -6.471625  0.001022
   scf:   13     -898.205283     -898.205283     -898.274591  0.000033 -6.471666  0.000867

SCF Convergence by DM+H criterion
max |DM_out - DM_in|         :     0.0000331896
max |H_out - H_in|      (eV) :     0.0008669736
SCF cycle converged after 13 iterations

Using DM_out to compute the final energy and forces
No. of atoms with KB's overlaping orbs in proc 0. Max # of overlaps:       4      26

siesta: E_KS(eV) =             -898.2053

siesta: Atomic forces (eV/Ang):
----------------------------------------
   Tot   -0.002473   -0.000275   -0.000207
----------------------------------------
   Max    2.695712
   Res    1.237893    sqrt( Sum f_i^2 / 3N )
----------------------------------------
   Max    2.695712    constrained

Stress tensor Voigt[x,y,z,yz,xz,xy] (kbar):       -4.38       -0.11        0.42        0.38        1.22        1.15
(Free)E + p*V (eV/cell)     -897.4271
Target enthalpy (eV/cell)     -898.2746

siesta: Stress tensor (static) (eV/Ang**3):
         0.002915    0.000917    0.000869
         0.000917    0.000220    0.000262
         0.000869    0.000262    0.000357

siesta: Pressure (static):         -1.86461565  kBar

siesta: Stress tensor (total) (eV/Ang**3):
        -0.002735    0.000720    0.000763
         0.000720   -0.000067    0.000237
         0.000763    0.000237    0.000259

siesta: Pressure (total):          1.35776436  kBar

siesta: Temp_ion =    7360.186 K

                     ====================================
                        Begin MD step =     15
                     ====================================

outcell: Unit cell vectors (Ang):
       10.000004    0.000000    0.000000
        0.000000   10.000004    0.000000
        0.000000    0.000000   10.000004

outcell: Cell vector modules (Ang)   :   10.000004   10.000004   10.000004
outcell: Cell angles (23,13,12) (deg):     90.0000     90.0000     90.0000
outcell: Cell volume (Ang**3)        :   1000.0012
<dSpData1D:S at geom step 15
  <sparsity:sparsity for geom step 15
    nrows_g=26 nrows=26 sparsity=1.0000 nnzs=676, refcount: 7>
  <dData1D:(new from dSpData1D) n=676, refcount: 1>
refcount: 1>
new_DM -- step:    15
Re-using DM from previous geometries...
Number of DMs in history: 1
 DM extrapolation coefficients: 
1   1.00000
New DM after history re-use:
<dSpData2D:SpM extrapolated using coords
  <sparsity:sparsity for geom step 15
    nrows_g=26 nrows=26 sparsity=1.0000 nnzs=676, refcount: 9>
  <dData2D:(temp array for extrapolation) n=676 m=1, refcount: 1>
refcount: 1>
No. of atoms with KB's overlaping orbs in proc 0. Max # of overlaps:       4      26

InitMesh: MESH = 90 x 90 x 90 = 729000
InitMesh: Mesh cutoff (required, used) =   200.000   223.865 Ry
New grid distribution [1]: sub = 2

        iscf     Eharris(eV)        E_KS(eV)     FreeEng(eV)     dDmax    Ef(eV) dHmax(eV)
   scf:    1     -898.003584     -898.123207     -898.192204  0.052859 -6.556525  0.403321
   scf:    2     -896.632961     -897.660197     -897.708939  0.442662 -6.622796  1.816406
   scf:    3     -898.209370     -898.132968     -898.202209  0.373532 -6.571046  0.084909
   scf:    4     -898.134987     -898.134087     -898.203384  0.011562 -6.572655  0.081003
   scf:    5     -898.118255     -898.130766     -898.199504  0.074665 -6.587056  0.065238
   scf:    6     -898.136955     -898.135426     -898.204680  0.042944 -6.606759  0.014521
   scf:    7     -898.135648     -898.135568     -898.204853  0.006167 -6.607403  0.014550
   scf:    8     -898.135452     -898.135521     -898.204790  0.003218 -6.614089  0.009708
   scf:    9     -898.135580     -898.135604     -898.204905  0.008090 -6.613960  0.001103
   scf:   10     -898.135603     -898.135604     -898.204905  0.000643 -6.614266  0.000719
   scf:   11     -898.135604     -898.135604     -898.204905  0.000034 -6.614254  0.000607

SCF Convergence by DM+H criterion
max |DM_out - DM_in|         :     0.0000343912
max |H_out - H_in|      (eV) :     0.0006074363
SCF cycle converged after 11 iterations

Using DM_out to compute the final energy and forces
No. of atoms with KB's overlaping orbs in proc 0. Max # of overlaps:       4      26

siesta: E_KS(eV) =             -898.1356

siesta: Atomic forces (eV/Ang):
----------------------------------------
   Tot    0.000601   -0.000150    0.000656
----------------------------------------
   Max    2.838796
   Res    1.314941    sqrt( Sum f_i^2 / 3N )
----------------------------------------
   Max    2.838796    constrained

Stress tensor Voigt[x,y,z,yz,xz,xy] (kbar):       -4.43       -0.03        0.55        0.47        1.42        1.52
(Free)E + p*V (eV/cell)     -897.3905
Target enthalpy (eV/cell)     -898.2049

siesta: Stress tensor (static) (eV/Ang**3):
         0.002650    0.001058    0.000887
         0.001058    0.000230    0.000278
         0.000887    0.000278    0.000385

siesta: Pressure (static):         -1.74374535  kBar

siesta: Stress tensor (total) (eV/Ang**3):
        -0.002767    0.000952    0.000885
         0.000952   -0.000021    0.000296
         0.000885    0.000296    0.000344

siesta: Pressure (total):          1.30480101  kBar

siesta: Temp_ion =    7178.029 K

                     ====================================
                        Begin MD step =     16
                     ====================================

outcell: Unit cell vectors (Ang):
       10.000004    0.000000    0.000000
        0.000000   10.000004    0.000000
        0.000000    0.000000   10.000004

outcell: Cell vector modules (Ang)   :   10.000004   10.000004   10.000004
outcell: Cell angles (23,13,12) (deg):     90.0000     90.0000     90.0000
outcell: Cell volume (Ang**3)        :   1000.0012
<dSpData1D:S at geom step 16
  <sparsity:sparsity for geom step 16
    nrows_g=26 nrows=26 sparsity=1.0000 nnzs=676, refcount: 7>
  <dData1D:(new from dSpData1D) n=676, refcount: 1>
refcount: 1>
new_DM -- step:    16
Re-using DM from previous geometries...
Number of DMs in history: 1
 DM extrapolation coefficients: 
1   1.00000
New DM after history re-use:
<dSpData2D:SpM extrapolated using coords
  <sparsity:sparsity for geom step 16
    nrows_g=26 nrows=26 sparsity=1.0000 nnzs=676, refcount: 9>
  <dData2D:(temp array for extrapolation) n=676 m=1, refcount: 1>
refcount: 1>
Note: For starting DM, Qtot, Tr[D*S] =         14.00000000         14.03740110
No. of atoms with KB's overlaping orbs in proc 0. Max # of overlaps:       4      26

InitMesh: MESH = 90 x 90 x 90 = 729000
InitMesh: Mesh cutoff (required, used) =   200.000   223.865 Ry
New grid distribution [1]: sub = 2

        iscf     Eharris(eV)        E_KS(eV)     FreeEng(eV)     dDmax    Ef(eV) dHmax(eV)
   scf:    1     -898.058860     -898.130995     -898.199467  0.068163 -6.927984  0.785063
   scf:    2     -895.482260     -897.314289     -897.340634  0.591891 -6.571080  2.881146
   scf:    3     -898.351897     -898.141846     -898.210353  0.453557 -6.858954  0.364698
   scf:    4     -898.155180     -898.154670     -898.223953  0.072668 -6.854211  0.208576
   scf:    5     -897.993168     -898.101514     -898.165353  0.152248 -6.784075  0.304382
   scf:    6     -898.155611     -898.131477     -898.198178  0.049448 -6.752324  0.188299
   scf:    7     -898.153698     -898.156294     -898.225585  0.107398 -6.738698  0.014373
   scf:    8     -898.156270     -898.156282     -898.225574  0.000483 -6.737091  0.011397
   scf:    9     -898.156218     -898.156267     -898.225571  0.003458 -6.738024  0.012624
   scf:   10     -898.155877     -898.156099     -898.225404  0.004929 -6.737706  0.014712
   scf:   11     -898.156058     -898.156079     -898.225384  0.000389 -6.737886  0.015894
   scf:   12     -898.156393     -898.156365     -898.225648  0.009406 -6.732018  0.002620
   scf:   13     -898.156362     -898.156364     -898.225648  0.000539 -6.732229  0.002171
   scf:   14     -898.156366     -898.156365     -898.225648  0.000300 -6.732294  0.002364
   scf:   15     -898.156366     -898.156366     -898.225648  0.000291 -6.732306  0.002313
   scf:   16     -898.156365     -898.156365     -898.225648  0.000261 -6.731801  0.001675
   scf:   17     -898.156365     -898.156365     -898.225648  0.000181 -6.731297  0.001490
   scf:   18     -898.156365     -898.156365     -898.225649  0.000229 -6.731205  0.001452
   scf:   19     -898.156363     -898.156364     -898.225649  0.000308 -6.731187  0.000761
   scf:   20     -898.156365     -898.156365     -898.225649  0.000045 -6.731140  0.000615

SCF Convergence by DM+H criterion
max |DM_out - DM_in|         :     0.0000454133
max |H_out - H_in|      (eV) :     0.0006149962
SCF cycle converged after 20 iterations

Using DM_out to compute the final energy and forces
No. of atoms with KB's overlaping orbs in proc 0. Max # of overlaps:       4      26

siesta: E_KS(eV) =             -898.1564

siesta: Atomic forces (eV/Ang):
----------------------------------------
   Tot   -0.001820    0.000396    0.000887
----------------------------------------
   Max    2.496207
   Res    1.203255    sqrt( Sum f_i^2 / 3N )
----------------------------------------
   Max    2.496207    constrained

Stress tensor Voigt[x,y,z,yz,xz,xy] (kbar):       -6.21       -0.10        0.47        0.40        1.08        1.49
(Free)E + p*V (eV/cell)     -897.0112
Target enthalpy (eV/cell)     -898.2256

siesta: Stress tensor (static) (eV/Ang**3):
         0.001451    0.001004    0.000651
         0.001004    0.000169    0.000210
         0.000651    0.000210    0.000304

[...]
   scf:    2     -897.173722     -897.214027     -897.281994  0.079980 -6.089859  0.270393
   scf:    3     -897.231348     -897.223501     -897.292174  0.022108 -6.034079  0.250145
   scf:    4     -897.222595     -897.231391     -897.300575  0.070249 -6.076001  0.066596
   scf:    5     -897.231357     -897.232851     -897.302148  0.029361 -6.071527  0.020969
   scf:    6     -897.233073     -897.232977     -897.302286  0.002972 -6.074725  0.014093
   scf:    7     -897.233078     -897.233051     -897.302365  0.003598 -6.080259  0.004071
   scf:    8     -897.233058     -897.233055     -897.302370  0.000644 -6.079458  0.003149
   scf:    9     -897.233054     -897.233056     -897.302370  0.000802 -6.081041  0.001734
   scf:   10     -897.233056     -897.233056     -897.302371  0.000052 -6.081103  0.001245
   scf:   11     -897.233057     -897.233057     -897.302371  0.000430 -6.081263  0.000380
   scf:   12     -897.233057     -897.233057     -897.302371  0.000008 -6.081274  0.000379

SCF Convergence by DM+H criterion
max |DM_out - DM_in|         :     0.0000081821
max |H_out - H_in|      (eV) :     0.0003793151
SCF cycle converged after 12 iterations

Using DM_out to compute the final energy and forces
No. of atoms with KB's overlaping orbs in proc 0. Max # of overlaps:       4      18

siesta: E_KS(eV) =             -897.2331

siesta: Atomic forces (eV/Ang):
----------------------------------------
   Tot   -0.007672   -0.005192   -0.001114
----------------------------------------
   Max    2.712897
   Res    1.946110    sqrt( Sum f_i^2 / 3N )
----------------------------------------
   Max    2.712897    constrained

Stress tensor Voigt[x,y,z,yz,xz,xy] (kbar):        0.48        3.23        2.35        1.61        3.48       -2.16
(Free)E + p*V (eV/cell)     -898.5632
Target enthalpy (eV/cell)     -897.3024

siesta: Stress tensor (static) (eV/Ang**3):
         0.002932   -0.000160    0.002445
        -0.000160    0.002841    0.001358
         0.002445    0.001358    0.002827

siesta: Pressure (static):         -4.59310881  kBar

siesta: Stress tensor (total) (eV/Ang**3):
         0.000302   -0.001348    0.002173
        -0.001348    0.002014    0.001006
         0.002173    0.001006    0.001466

siesta: Pressure (total):         -2.02002706  kBar

siesta: Temp_ion =    4922.492 K

                     ====================================
                        Begin MD step =    198
                     ====================================

outcell: Unit cell vectors (Ang):
       10.000004    0.000000    0.000000
        0.000000   10.000004    0.000000
        0.000000    0.000000   10.000004

outcell: Cell vector modules (Ang)   :   10.000004   10.000004   10.000004
outcell: Cell angles (23,13,12) (deg):     90.0000     90.0000     90.0000
outcell: Cell volume (Ang**3)        :   1000.0012
<dSpData1D:S at geom step 198
  <sparsity:sparsity for geom step 198
    nrows_g=26 nrows=26 sparsity=.5740 nnzs=388, refcount: 7>
  <dData1D:(new from dSpData1D) n=388, refcount: 1>
refcount: 1>
new_DM -- step:   198
Re-using DM from previous geometries...
Number of DMs in history: 1
 DM extrapolation coefficients: 
1   1.00000
New DM after history re-use:
<dSpData2D:SpM extrapolated using coords
  <sparsity:sparsity for geom step 198
    nrows_g=26 nrows=26 sparsity=.5740 nnzs=388, refcount: 9>
  <dData2D:(temp array for extrapolation) n=388 m=1, refcount: 1>
refcount: 1>
Note: For starting DM, Qtot, Tr[D*S] =         14.00000000         13.96351595
No. of atoms with KB's overlaping orbs in proc 0. Max # of overlaps:       4      18

InitMesh: MESH = 90 x 90 x 90 = 729000
InitMesh: Mesh cutoff (required, used) =   200.000   223.865 Ry
New grid distribution [1]: sub = 2

        iscf     Eharris(eV)        E_KS(eV)     FreeEng(eV)     dDmax    Ef(eV) dHmax(eV)
   scf:    1     -897.088285     -896.980963     -897.050275  0.020374 -5.881876  0.275927
   scf:    2     -896.969516     -896.977761     -897.046821  0.042938 -6.144922  0.147070
   scf:    3     -896.981485     -896.979800     -897.048999  0.012321 -6.122316  0.135421
   scf:    4     -896.978850     -896.981130     -897.050405  0.039928 -6.151620  0.046071
   scf:    5     -896.981163     -896.981590     -897.050900  0.019807 -6.153777  0.029736
   scf:    6     -896.981611     -896.981601     -897.050911  0.000377 -6.154614  0.028143
   scf:    7     -896.981806     -896.981750     -897.051065  0.005093 -6.156224  0.001692
   scf:    8     -896.981750     -896.981750     -897.051065  0.000079 -6.156030  0.001796
   scf:    9     -896.981750     -896.981750     -897.051065  0.000294 -6.157017  0.000767

SCF Convergence by DM+H criterion
max |DM_out - DM_in|         :     0.0002938953
max |H_out - H_in|      (eV) :     0.0007665819
SCF cycle converged after 9 iterations

Using DM_out to compute the final energy and forces
No. of atoms with KB's overlaping orbs in proc 0. Max # of overlaps:       4      18

siesta: E_KS(eV) =             -896.9818

siesta: Atomic forces (eV/Ang):
----------------------------------------
   Tot   -0.001531   -0.005580   -0.003111
----------------------------------------
   Max    2.896742
   Res    2.142419    sqrt( Sum f_i^2 / 3N )
----------------------------------------
   Max    2.896742    constrained

Stress tensor Voigt[x,y,z,yz,xz,xy] (kbar):        1.81        3.67        4.32        2.12        4.60       -2.83
(Free)E + p*V (eV/cell)     -899.0901
Target enthalpy (eV/cell)     -897.0511

siesta: Stress tensor (static) (eV/Ang**3):
         0.003584   -0.000662    0.002833
        -0.000662    0.002979    0.001273
         0.002833    0.001273    0.003371

siesta: Pressure (static):         -5.30578852  kBar

siesta: Stress tensor (total) (eV/Ang**3):
         0.001131   -0.001769    0.002872
        -0.001769    0.002292    0.001321
         0.002872    0.001321    0.002693

siesta: Pressure (total):         -3.26692089  kBar

siesta: Temp_ion =    4278.910 K

                     ====================================
                        Begin MD step =    199
                     ====================================

outcell: Unit cell vectors (Ang):
       10.000004    0.000000    0.000000
        0.000000   10.000004    0.000000
        0.000000    0.000000   10.000004

outcell: Cell vector modules (Ang)   :   10.000004   10.000004   10.000004
outcell: Cell angles (23,13,12) (deg):     90.0000     90.0000     90.0000
outcell: Cell volume (Ang**3)        :   1000.0012
<dSpData1D:S at geom step 199
  <sparsity:sparsity for geom step 199
    nrows_g=26 nrows=26 sparsity=.5740 nnzs=388, refcount: 7>
  <dData1D:(new from dSpData1D) n=388, refcount: 1>
refcount: 1>
new_DM -- step:   199
Re-using DM from previous geometries...
Number of DMs in history: 1
 DM extrapolation coefficients: 
1   1.00000
New DM after history re-use:
<dSpData2D:SpM extrapolated using coords
  <sparsity:sparsity for geom step 199
    nrows_g=26 nrows=26 sparsity=.5740 nnzs=388, refcount: 9>
  <dData2D:(temp array for extrapolation) n=388 m=1, refcount: 1>
refcount: 1>
No. of atoms with KB's overlaping orbs in proc 0. Max # of overlaps:       4      18

InitMesh: MESH = 90 x 90 x 90 = 729000
InitMesh: Mesh cutoff (required, used) =   200.000   223.865 Ry
New grid distribution [1]: sub = 2

        iscf     Eharris(eV)        E_KS(eV)     FreeEng(eV)     dDmax    Ef(eV) dHmax(eV)
   scf:    1     -897.308834     -897.022487     -897.091801  0.019115 -6.409156  0.253440
   scf:    2     -897.018755     -897.022422     -897.091668  0.017114 -6.184090  0.137581
   scf:    3     -897.025301     -897.024073     -897.093369  0.007494 -6.247190  0.061754
   scf:    4     -897.023880     -897.024318     -897.093625  0.013400 -6.238820  0.024874
   scf:    5     -897.024065     -897.024362     -897.093670  0.009954 -6.228832  0.018636
   scf:    6     -897.024534     -897.024461     -897.093774  0.002332 -6.235067  0.022577
   scf:    7     -897.024491     -897.024488     -897.093803  0.002500 -6.216332  0.001103
   scf:    8     -897.024488     -897.024488     -897.093803  0.000116 -6.215984  0.000701

SCF Convergence by DM+H criterion
max |DM_out - DM_in|         :     0.0001158848
max |H_out - H_in|      (eV) :     0.0007009176
SCF cycle converged after 8 iterations

Using DM_out to compute the final energy and forces
No. of atoms with KB's overlaping orbs in proc 0. Max # of overlaps:       4      18

siesta: E_KS(eV) =             -897.0245

siesta: Atomic forces (eV/Ang):
----------------------------------------
   Tot    0.003331   -0.004158   -0.002880
----------------------------------------
   Max    3.055167
   Res    2.288858    sqrt( Sum f_i^2 / 3N )
----------------------------------------
   Max    3.055167    constrained

Stress tensor Voigt[x,y,z,yz,xz,xy] (kbar):        2.72        3.41        5.59        2.07        5.15       -3.69
(Free)E + p*V (eV/cell)     -899.5328
Target enthalpy (eV/cell)     -897.0938

siesta: Stress tensor (static) (eV/Ang**3):
         0.004046   -0.001124    0.003024
        -0.001124    0.002901    0.001081
         0.003024    0.001081    0.003689

siesta: Pressure (static):         -5.67999441  kBar

siesta: Stress tensor (total) (eV/Ang**3):
         0.001700   -0.002302    0.003215
        -0.002302    0.002131    0.001293
         0.003215    0.001293    0.003486

siesta: Pressure (total):         -3.90769466  kBar

siesta: Temp_ion =    4389.778 K

                     ====================================
                        Begin MD step =    200
                     ====================================

outcell: Unit cell vectors (Ang):
       10.000004    0.000000    0.000000
        0.000000   10.000004    0.000000
        0.000000    0.000000   10.000004

outcell: Cell vector modules (Ang)   :   10.000004   10.000004   10.000004
outcell: Cell angles (23,13,12) (deg):     90.0000     90.0000     90.0000
outcell: Cell volume (Ang**3)        :   1000.0012
<dSpData1D:S at geom step 200
  <sparsity:sparsity for geom step 200
    nrows_g=26 nrows=26 sparsity=.5740 nnzs=388, refcount: 7>
  <dData1D:(new from dSpData1D) n=388, refcount: 1>
refcount: 1>
new_DM -- step:   200
Re-using DM from previous geometries...
Number of DMs in history: 1
 DM extrapolation coefficients: 
1   1.00000
New DM after history re-use:
<dSpData2D:SpM extrapolated using coords
  <sparsity:sparsity for geom step 200
    nrows_g=26 nrows=26 sparsity=.5740 nnzs=388, refcount: 9>
  <dData2D:(temp array for extrapolation) n=388 m=1, refcount: 1>
refcount: 1>
Note: For starting DM, Qtot, Tr[D*S] =         14.00000000         14.06007857
No. of atoms with KB's overlaping orbs in proc 0. Max # of overlaps:       4      18

InitMesh: MESH = 90 x 90 x 90 = 729000
InitMesh: Mesh cutoff (required, used) =   200.000   223.865 Ry
New grid distribution [1]: sub = 2

        iscf     Eharris(eV)        E_KS(eV)     FreeEng(eV)     dDmax    Ef(eV) dHmax(eV)
   scf:    1     -897.795979     -897.356931     -897.426244  0.020648 -6.919143  0.786307
   scf:    2     -897.328988     -897.350640     -897.419691  0.039866 -6.207037  0.388148
   scf:    3     -897.363054     -897.357509     -897.426732  0.014261 -6.344810  0.259755
   scf:    4     -897.358578     -897.360713     -897.429984  0.034357 -6.298375  0.057469
   scf:    5     -897.358971     -897.360895     -897.430163  0.024228 -6.280849  0.044576
   scf:    6     -897.361824     -897.361433     -897.430735  0.006212 -6.291771  0.047847
   scf:    7     -897.361798     -897.361729     -897.431043  0.007257 -6.258566  0.003501
   scf:    8     -897.361729     -897.361729     -897.431044  0.000209 -6.257832  0.002644
   scf:    9     -897.361728     -897.361729     -897.431044  0.000379 -6.256982  0.001376
   scf:   10     -897.361729     -897.361729     -897.431044  0.000177 -6.256809  0.001352
   scf:   11     -897.361729     -897.361729     -897.431044  0.000127 -6.256768  0.001261
   scf:   12     -897.361729     -897.361729     -897.431044  0.000148 -6.256848  0.000912

SCF Convergence by DM+H criterion
max |DM_out - DM_in|         :     0.0001477977
max |H_out - H_in|      (eV) :     0.0009123384
SCF cycle converged after 12 iterations

Using DM_out to compute the final energy and forces
No. of atoms with KB's overlaping orbs in proc 0. Max # of overlaps:       4      18

siesta: E_KS(eV) =             -897.3617

siesta: Atomic forces (eV/Ang):
----------------------------------------
   Tot   -0.003296   -0.004579   -0.000379
----------------------------------------
   Max    3.383756
   Res    2.346155    sqrt( Sum f_i^2 / 3N )
----------------------------------------
   Max    3.383756    constrained

Stress tensor Voigt[x,y,z,yz,xz,xy] (kbar):        3.19        2.49        5.83        1.34        5.04       -4.71
(Free)E + p*V (eV/cell)     -899.8274
Target enthalpy (eV/cell)     -897.4310

siesta: Stress tensor (static) (eV/Ang**3):
         0.004311   -0.001566    0.002988
        -0.001566    0.002611    0.000720
         0.002988    0.000720    0.003671

siesta: Pressure (static):         -5.65757200  kBar

siesta: Stress tensor (total) (eV/Ang**3):
         0.001994   -0.002942    0.003147
        -0.002942    0.001554    0.000839
         0.003147    0.000839    0.003640

siesta: Pressure (total):         -3.83935132  kBar

siesta: Temp_ion =    5246.595 K

coxmol: Writing XMOL coordinates into file xoc.xyz                                                                                                                                                                                                                             

siesta: Program's energy decomposition (eV):
siesta: Ebs     =      -192.915330
siesta: Eions   =      1581.702395
siesta: Ena     =       338.620504
siesta: Ekin    =       618.801970
siesta: Enl     =       -85.794021
siesta: Eso     =         0.000000
siesta: Edftu   =         0.000000
siesta: DEna    =        13.830041
siesta: DUscf   =         0.932082
siesta: DUext   =         0.000000
siesta: Ex      =      -188.415940
siesta: Ec      =       -13.633971
siesta: Exc     =      -202.049911
siesta: EbV     =         0.000000
siesta: eta*DQ  =         0.000000
siesta: Emadel  =         0.000000
siesta: Emeta   =         0.000000
siesta: Emolmec =         0.000000
siesta: Ekinion =         2.034524
siesta: Eharris =      -895.327205
siesta: Etot    =      -895.327205
siesta: FreeEng =      -895.396519

siesta: Final energy (eV):
siesta:  Band Struct. =    -192.915330
siesta:       Kinetic =     618.801970
siesta:       Hartree =     823.977570
siesta:         Edftu =       0.000000
siesta:       Eso     =       0.000000
siesta:    Ext. field =       0.000000
siesta:         Exch. =    -188.415940
siesta:         Corr. =     -13.633971
siesta:     Bulk bias =       0.000000
siesta:   Exch.-corr. =    -202.049911
siesta:  Ion-electron =   -2202.231516
siesta:       Ion-ion =      64.140157
siesta:       Ekinion =       2.034524
siesta: D3 dispersion =       0.000000
siesta:         Total =    -895.327205
siesta:         Fermi =      -6.256848

siesta: Atomic forces (eV/Ang):
siesta:      1   -3.383756    2.116219   -1.560299
siesta:      2    3.380339   -2.120532    1.560858
siesta:      3    1.330846    1.911240    3.039455
siesta:      4   -1.330725   -1.911506   -3.040394
siesta: ----------------------------------------
siesta:    Tot   -0.003296   -0.004579   -0.000379

siesta: Stress tensor (static) (eV/Ang**3):
siesta:     0.004311   -0.001566    0.002988
siesta:    -0.001566    0.002611    0.000720
siesta:     0.002988    0.000720    0.003671

siesta: Cell volume =       1000.001196 Ang**3

siesta: Pressure (static):
siesta:                Solid            Molecule  Units
siesta:          -0.00003846         -0.00000009  Ry/Bohr**3
siesta:          -0.00353118         -0.00000785  eV/Ang**3
siesta:          -5.65757200         -0.01257408  kBar
(Free)E+ p_basis*V_orbitals  =        -896.672335
(Free)Eharris+ p_basis*V_orbitals  =        -896.672335

siesta: Electric dipole (a.u.)  =    0.011238    0.000996   -0.000046
siesta: Electric dipole (Debye) =    0.028565    0.002532   -0.000118

cite: Please see "xoc.bib" for an exhaustive BiBTeX file.
cite: Please clearly indicate Siesta version in published work: 5.2.1
cite: This calculation has made use of the following articles
cite: which are encouraged to be cited in a published work.
        Primary SIESTA paper
          DOI: www.doi.org/10.1088/0953-8984/14/11/302


timer: Elapsed wall time (sec) =     432.766
timer: CPU execution times (sec):

Routine            Calls   Time/call    Tot.time        %
siesta                 1    1867.309    1867.309   100.00
Setup                  1       1.087       1.087     0.06
bands                  1       0.000       0.000     0.00
KSV_init               1       0.000       0.000     0.00
IterGeom             200       9.331    1866.221    99.94
geom_init            200       0.193      38.626     2.07
state_init           200       0.001       0.147     0.01
hsparse              200       0.000       0.007     0.00
overlap              200       0.000       0.091     0.00
Setup_H0             200       0.089      17.734     0.95
naefs                400       0.000       0.006     0.00
dnaefs               400       0.000       0.005     0.00
MolMec               400       0.000       0.000     0.00
kinefsm              400       0.000       0.117     0.01
nlefsm               400       0.002       0.638     0.03
DHSCF_Init           200       0.086      17.127     0.92
DHSCF1               200       0.008       1.572     0.08
InitMesh             200       0.008       1.570     0.08
INITMESH             200       0.000       0.001     0.00
DHSCF2               200       0.078      15.554     0.83
REMESH               200       0.003       0.612     0.03
REORD              10196       0.002      18.735     1.00
PHION                200       0.037       7.470     0.40
COMM_BSC           14992       0.002      23.704     1.27
POISON              3798       0.144     548.031    29.35
fft                 7596       0.052     391.624    20.97
setup_H             3398       0.533    1810.040    96.93
DHSCF               3598       0.512    1841.594    98.62
DHSCF3              3598       0.508    1828.313    97.91
rhoofd              3598       0.033     117.473     6.29
XC                  3598       0.275     990.948    53.07
GXC-CellXC          3598       0.263     947.194    50.73
gridxc@cellXC       3598       0.263     947.115    50.72
vmat                3598       0.004      14.459     0.77
IterSCF             3198       0.561    1793.289    96.04
compute_dm          3198       0.001       3.506     0.19
diagon              3198       0.001       3.462     0.19
r-eigvec            3198       0.001       3.005     0.16
r-buildHS           3198       0.000       0.009     0.00
rdiag               3198       0.001       2.982     0.16
rdiag1              3198       0.000       0.014     0.00
rdiag2              3198       0.000       0.042     0.00
rdiag3              3198       0.001       2.760     0.15
rdiag4              3198       0.000       0.118     0.01
r-buildD            3198       0.000       0.306     0.02
MIXER               2998       0.000       0.089     0.00
PostSCF              200       0.171      34.170     1.83
FINAL_HF             200       0.171      34.165     1.83
DHSCF4               200       0.066      13.272     0.71
dfscf                200       0.049       9.847     0.53
overfsm              200       0.000       0.033     0.00
writeHSX             200       0.000       0.020     0.00
state_analysis       200       0.000       0.029     0.00
siesta_move          200       0.000       0.059     0.00
Analysis               1       0.000       0.000     0.00
optical                1       0.000       0.000     0.00
  

>> End of run:  26-MAR-2025  15:30:25
Job completed
Job completed
